 Entering Gaussian System, Link 0=g16
 Input=/home/iiit/sc4101.25/ch3ftranstion.com
 Output=/home/iiit/sc4101.25/ch3ftranstion.log
 Initial command:
 /global/g16/l1.exe "/tmp/Gau-46097.inp" -scrdir="/tmp/"
 Entering Link 1 = /global/g16/l1.exe PID=     46099.
  
 Copyright (c) 1988-2017, Gaussian, Inc.  All Rights Reserved.
  
 This is part of the Gaussian(R) 16 program.  It is based on
 the Gaussian(R) 09 system (copyright 2009, Gaussian, Inc.),
 the Gaussian(R) 03 system (copyright 2003, Gaussian, Inc.),
 the Gaussian(R) 98 system (copyright 1998, Gaussian, Inc.),
 the Gaussian(R) 94 system (copyright 1995, Gaussian, Inc.),
 the Gaussian 92(TM) system (copyright 1992, Gaussian, Inc.),
 the Gaussian 90(TM) system (copyright 1990, Gaussian, Inc.),
 the Gaussian 88(TM) system (copyright 1988, Gaussian, Inc.),
 the Gaussian 86(TM) system (copyright 1986, Carnegie Mellon
 University), and the Gaussian 82(TM) system (copyright 1983,
 Carnegie Mellon University). Gaussian is a federally registered
 trademark of Gaussian, Inc.
  
 This software contains proprietary and confidential information,
 including trade secrets, belonging to Gaussian, Inc.
  
 This software is provided under written license and may be
 used, copied, transmitted, or stored only in accord with that
 written license.
  
 The following legend is applicable only to US Government
 contracts under FAR:
  
                    RESTRICTED RIGHTS LEGEND
  
 Use, reproduction and disclosure by the US Government is
 subject to restrictions as set forth in subparagraphs (a)
 and (c) of the Commercial Computer Software - Restricted
 Rights clause in FAR 52.227-19.
  
 Gaussian, Inc.
 340 Quinnipiac St., Bldg. 40, Wallingford CT 06492
  
  
 ---------------------------------------------------------------
 Warning -- This program may not be used in any manner that
 competes with the business of Gaussian, Inc. or will provide
 assistance to any competitor of Gaussian, Inc.  The licensee
 of this program is prohibited from giving any competitor of
 Gaussian, Inc. access to this program.  By using this program,
 the user acknowledges that Gaussian, Inc. is engaged in the
 business of creating and licensing software in the field of
 computational chemistry and represents and warrants to the
 licensee that it is not a competitor of Gaussian, Inc. and that
 it will not use this program in any manner prohibited above.
 ---------------------------------------------------------------
  

 Cite this work as:
 Gaussian 16, Revision B.01,
 M. J. Frisch, G. W. Trucks, H. B. Schlegel, G. E. Scuseria, 
 M. A. Robb, J. R. Cheeseman, G. Scalmani, V. Barone, 
 G. A. Petersson, H. Nakatsuji, X. Li, M. Caricato, A. V. Marenich, 
 J. Bloino, B. G. Janesko, R. Gomperts, B. Mennucci, H. P. Hratchian, 
 J. V. Ortiz, A. F. Izmaylov, J. L. Sonnenberg, D. Williams-Young, 
 F. Ding, F. Lipparini, F. Egidi, J. Goings, B. Peng, A. Petrone, 
 T. Henderson, D. Ranasinghe, V. G. Zakrzewski, J. Gao, N. Rega, 
 G. Zheng, W. Liang, M. Hada, M. Ehara, K. Toyota, R. Fukuda, 
 J. Hasegawa, M. Ishida, T. Nakajima, Y. Honda, O. Kitao, H. Nakai, 
 T. Vreven, K. Throssell, J. A. Montgomery, Jr., J. E. Peralta, 
 F. Ogliaro, M. J. Bearpark, J. J. Heyd, E. N. Brothers, K. N. Kudin, 
 V. N. Staroverov, T. A. Keith, R. Kobayashi, J. Normand, 
 K. Raghavachari, A. P. Rendell, J. C. Burant, S. S. Iyengar, 
 J. Tomasi, M. Cossi, J. M. Millam, M. Klene, C. Adamo, R. Cammi, 
 J. W. Ochterski, R. L. Martin, K. Morokuma, O. Farkas, 
 J. B. Foresman, and D. J. Fox, Gaussian, Inc., Wallingford CT, 2016.
 
 ******************************************
 Gaussian 16:  ES64L-G16RevB.01 20-Dec-2017
                 5-Dec-2025 
 ******************************************
 %chk=ch3ftranstion.chk
 ---------------------------------------------------------
 # opt=(calcfc,ts,noeigen) freq hf/6-31g geom=connectivity
 ---------------------------------------------------------
 1/5=1,10=4,11=1,18=20,38=1,57=2/1,3;
 2/9=110,12=2,17=6,18=5,40=1/2;
 3/5=1,6=6,11=9,25=1,30=1,71=2,140=1/1,2,3;
 4//1;
 5/5=2,38=5/2;
 8/6=4,10=90,11=11/1;
 11/6=1,8=1,9=11,15=111,16=1/1,2,10;
 10/6=1,13=1/2;
 6/7=2,8=2,9=2,10=2,28=1/1;
 7/10=1,18=20,25=1/1,2,3,16;
 1/5=1,10=4,11=1,18=20/3(2);
 2/9=110/2;
 99//99;
 2/9=110/2;
 3/5=1,6=6,11=9,25=1,30=1,71=1/1,2,3;
 4/5=5,16=3,69=1/1;
 5/5=2,38=5/2;
 7//1,2,3,16;
 1/5=1,11=1,18=20/3(-5);
 2/9=110/2;
 6/7=2,8=2,9=2,10=2,19=2,28=1/1;
 99/9=1/99;
 -------------------
 Title Card Required
 -------------------
 Symbolic Z-matrix:
 Charge = -1 Multiplicity = 1
 C                     0.33102  -0.54057   0.14281 
 H                     0.79531  -1.47595  -0.09041 
 H                     0.79539   0.12902   0.83628 
 H                    -0.59765  -0.27478  -0.31745 
 Br                   -0.64752  -1.39546   1.62353 
 F                     1.18041   0.2015   -1.14248 
 

 GradGradGradGradGradGradGradGradGradGradGradGradGradGradGradGradGradGrad
 Berny optimization.
 Initialization pass.
                           ----------------------------
                           !    Initial Parameters    !
                           ! (Angstroms and Degrees)  !
 --------------------------                            --------------------------
 ! Name  Definition              Value          Derivative Info.                !
 --------------------------------------------------------------------------------
 ! R1    R(1,2)                  1.07           calculate D2E/DX2 analytically  !
 ! R2    R(1,3)                  1.07           calculate D2E/DX2 analytically  !
 ! R3    R(1,4)                  1.07           calculate D2E/DX2 analytically  !
 ! R4    R(1,5)                  1.97           calculate D2E/DX2 analytically  !
 ! R5    R(1,6)                  1.71           calculate D2E/DX2 analytically  !
 ! A1    A(2,1,3)              120.0001         calculate D2E/DX2 analytically  !
 ! A2    A(2,1,4)              119.9998         calculate D2E/DX2 analytically  !
 ! A3    A(2,1,5)               90.0            calculate D2E/DX2 analytically  !
 ! A4    A(2,1,6)               90.0            calculate D2E/DX2 analytically  !
 ! A5    A(3,1,4)              120.0001         calculate D2E/DX2 analytically  !
 ! A6    A(3,1,5)               89.9999         calculate D2E/DX2 analytically  !
 ! A7    A(3,1,6)               89.9999         calculate D2E/DX2 analytically  !
 ! A8    A(4,1,5)               90.0001         calculate D2E/DX2 analytically  !
 ! A9    A(4,1,6)               90.0001         calculate D2E/DX2 analytically  !
 ! A10   L(5,1,6,2,-1)         180.0001         calculate D2E/DX2 analytically  !
 ! A11   L(5,1,6,2,-2)         180.0002         calculate D2E/DX2 analytically  !
 ! D1    D(2,1,4,3)            180.0            calculate D2E/DX2 analytically  !
 ! D2    D(2,1,5,3)            120.0001         calculate D2E/DX2 analytically  !
 ! D3    D(2,1,6,3)           -120.0001         calculate D2E/DX2 analytically  !
 ! D4    D(2,1,5,4)           -119.9998         calculate D2E/DX2 analytically  !
 ! D5    D(2,1,6,4)            119.9998         calculate D2E/DX2 analytically  !
 ! D6    D(3,1,5,4)            120.0001         calculate D2E/DX2 analytically  !
 ! D7    D(3,1,6,4)           -120.0001         calculate D2E/DX2 analytically  !
 --------------------------------------------------------------------------------
 Trust Radius=3.00D-01 FncErr=1.00D-07 GrdErr=1.00D-07 EigMax=2.50D+02 EigMin=1.00D-04
 Number of steps in this run=     33 maximum allowed number of steps=    100.
 Search for a saddle point of order  1.
 GradGradGradGradGradGradGradGradGradGradGradGradGradGradGradGradGradGrad

                          Input orientation:                          
 ---------------------------------------------------------------------
 Center     Atomic      Atomic             Coordinates (Angstroms)
 Number     Number       Type             X           Y           Z
 ---------------------------------------------------------------------
      1          6           0        0.331016   -0.540568    0.142809
      2          1           0        0.795306   -1.475952   -0.090410
      3          1           0        0.795389    0.129024    0.836282
      4          1           0       -0.597650   -0.274777   -0.317446
      5         35           0       -0.647517   -1.395461    1.623529
      6          9           0        1.180406    0.201501   -1.142480
 ---------------------------------------------------------------------
                    Distance matrix (angstroms):
                    1          2          3          4          5
     1  C    0.000000
     2  H    1.070000   0.000000
     3  H    1.070000   1.853296   0.000000
     4  H    1.070000   1.853292   1.853295   0.000000
     5  Br   1.970000   2.241830   2.241827   2.241831   0.000000
     6  F    1.710000   2.017177   2.017174   2.017178   3.680000
                    6
     6  F    0.000000
 This structure is nearly, but not quite of a higher symmetry.
 Consider Symm=Loose if the higher symmetry is desired.
 Stoichiometry    CH3BrF(1-)
 Framework group  C1[X(CH3BrF)]
 Deg. of freedom    12
 Full point group                 C1      NOp   1
 Largest Abelian subgroup         C1      NOp   1
 Largest concise Abelian subgroup C1      NOp   1
                         Standard orientation:                         
 ---------------------------------------------------------------------
 Center     Atomic      Atomic             Coordinates (Angstroms)
 Number     Number       Type             X           Y           Z
 ---------------------------------------------------------------------
      1          6           0       -0.995086   -0.011140    0.175852
      2          1           0       -1.148668   -0.562599   -0.728141
      3          1           0       -1.010026    1.058624    0.159056
      4          1           0       -0.826563   -0.529448    1.096644
      5         35           0        0.944737    0.010574   -0.166954
      6          9           0       -2.678891   -0.029980    0.473415
 ---------------------------------------------------------------------
 Rotational constants (GHZ):         145.9967746           2.2007266           2.2007266
 Standard basis: 6-31G (6D, 7F)
 There are    48 symmetry adapted cartesian basis functions of A   symmetry.
 There are    48 symmetry adapted basis functions of A   symmetry.
    48 basis functions,   133 primitive gaussians,    48 cartesian basis functions
    27 alpha electrons       27 beta electrons
       nuclear repulsion energy       160.0436782118 Hartrees.
 NAtoms=    6 NActive=    6 NUniq=    6 SFac= 1.00D+00 NAtFMM=   60 NAOKFM=F Big=F
 Integral buffers will be    131072 words long.
 Raffenetti 1 integral format.
 Two-electron integral symmetry is turned on.
 One-electron integrals computed using PRISM.
 NBasis=    48 RedAO= T EigKep=  1.54D-03  NBF=    48
 NBsUse=    48 1.00D-06 EigRej= -1.00D+00 NBFU=    48
 ExpMin= 1.43D-01 ExpMax= 5.74D+05 ExpMxC= 5.74D+03 IAcc=3 IRadAn=         5 AccDes= 0.00D+00
 Harris functional with IExCor=  205 and IRadAn=       5 diagonalized for initial guess.
 HarFok:  IExCor=  205 AccDes= 0.00D+00 IRadAn=         5 IDoV= 1 UseB2=F ITyADJ=14
 ICtDFT=  3500011 ScaDFX=  1.000000  1.000000  1.000000  1.000000
 FoFCou: FMM=F IPFlag=           0 FMFlag=      100000 FMFlg1=           0
         NFxFlg=           0 DoJE=T BraDBF=F KetDBF=T FulRan=T
         wScrn=  0.000000 ICntrl=       500 IOpCl=  0 I1Cent=   200000004 NGrid=           0
         NMat0=    1 NMatS0=      1 NMatT0=    0 NMatD0=    1 NMtDS0=    0 NMtDT0=    0
 Petite list used in FoFCou.
 Keep R1 ints in memory in canonical form, NReq=1690362.
 Requested convergence on RMS density matrix=1.00D-08 within 128 cycles.
 Requested convergence on MAX density matrix=1.00D-06.
 Requested convergence on             energy=1.00D-06.
 No special actions if energy rises.
 SCF Done:  E(RHF) =  -2708.69812576     A.U. after   11 cycles
            NFock= 11  Conv=0.66D-08     -V/T= 2.0022
 Range of M.O.s used for correlation:     1    48
 NBasis=    48 NAE=    27 NBE=    27 NFC=     0 NFV=     0
 NROrb=     48 NOA=    27 NOB=    27 NVA=    21 NVB=    21

 **** Warning!!: The largest alpha MO coefficient is  0.15604084D+02

 Symmetrizing basis deriv contribution to polar:
 IMax=3 JMax=2 DiffMx= 0.00D+00
 G2DrvN: will do     7 centers at a time, making    1 passes.
 Calling FoFCou, ICntrl=  3107 FMM=F I1Cent=   0 AccDes= 0.00D+00.
 End of G2Drv F.D. properties file   721 does not exist.
 End of G2Drv F.D. properties file   722 does not exist.
 End of G2Drv F.D. properties file   788 does not exist.
          IDoAtm=111111
          Differentiating once with respect to nuclear coordinates.
 Keep R1 ints in memory in canonical form, NReq=1691057.
          There are    21 degrees of freedom in the 1st order CPHF.  IDoFFX=6 NUNeed=     0.
     15 vectors produced by pass  0 Test12= 2.70D-15 4.76D-09 XBig12= 9.62D-02 1.57D-01.
 AX will form    15 AO Fock derivatives at one time.
     15 vectors produced by pass  1 Test12= 2.70D-15 4.76D-09 XBig12= 1.49D-03 1.53D-02.
     15 vectors produced by pass  2 Test12= 2.70D-15 4.76D-09 XBig12= 2.23D-05 2.00D-03.
     15 vectors produced by pass  3 Test12= 2.70D-15 4.76D-09 XBig12= 2.50D-07 1.83D-04.
     15 vectors produced by pass  4 Test12= 2.70D-15 4.76D-09 XBig12= 1.68D-09 1.05D-05.
     15 vectors produced by pass  5 Test12= 2.70D-15 4.76D-09 XBig12= 8.44D-12 7.45D-07.
     10 vectors produced by pass  6 Test12= 2.70D-15 4.76D-09 XBig12= 4.43D-14 5.33D-08.
      1 vectors produced by pass  7 Test12= 2.70D-15 4.76D-09 XBig12= 3.21D-16 4.89D-09.
 InvSVY:  IOpt=1 It=  1 EMax= 1.22D-15
 Solved reduced A of dimension   101 with    15 vectors.
 End of Minotr F.D. properties file   721 does not exist.
 End of Minotr F.D. properties file   722 does not exist.
 End of Minotr F.D. properties file   788 does not exist.

 **********************************************************************

            Population analysis using the SCF Density.

 **********************************************************************

 Orbital symmetries:
       Occupied  (A) (A) (A) (A) (A) (A) (A) (A) (A) (A) (A) (A)
                 (A) (A) (A) (A) (A) (A) (A) (A) (A) (A) (A) (A)
                 (A) (A) (A)
       Virtual   (A) (A) (A) (A) (A) (A) (A) (A) (A) (A) (A) (A)
                 (A) (A) (A) (A) (A) (A) (A) (A) (A)
 The electronic state is 1-A.
 Alpha  occ. eigenvalues -- -489.68642 -64.12481 -58.28618 -58.28505 -58.28505
 Alpha  occ. eigenvalues --  -25.88880 -11.10090  -9.42510  -7.18764  -7.18228
 Alpha  occ. eigenvalues --   -7.18228  -2.92704  -2.92548  -2.92548  -2.92046
 Alpha  occ. eigenvalues --   -2.92046  -1.17947  -0.86009  -0.66413  -0.44789
 Alpha  occ. eigenvalues --   -0.44789  -0.32924  -0.25870  -0.25870  -0.17789
 Alpha  occ. eigenvalues --   -0.17789  -0.13342
 Alpha virt. eigenvalues --    0.39473   0.48557   0.48557   0.51273   0.88473
 Alpha virt. eigenvalues --    0.92323   0.92323   0.95818   0.95819   1.00472
 Alpha virt. eigenvalues --    1.16539   1.37663   1.42060   1.42060   1.60750
 Alpha virt. eigenvalues --    1.87949   1.87949   1.94109   2.64124   7.50295
 Alpha virt. eigenvalues --   41.55312
          Condensed to atoms (all electrons):
               1          2          3          4          5          6
     1  C    5.077321   0.411421   0.411422   0.411421  -0.047795   0.026775
     2  H    0.411421   0.588846   0.000083   0.000082  -0.142788  -0.045256
     3  H    0.411422   0.000083   0.588846   0.000083  -0.142789  -0.045257
     4  H    0.411421   0.000082   0.000083   0.588846  -0.142787  -0.045256
     5  Br  -0.047795  -0.142788  -0.142789  -0.142787  35.989082   0.016846
     6  F    0.026775  -0.045256  -0.045257  -0.045256   0.016846   9.834651
 Mulliken charges:
               1
     1  C   -0.290565
     2  H    0.187612
     3  H    0.187613
     4  H    0.187612
     5  Br  -0.529769
     6  F   -0.742503
 Sum of Mulliken charges =  -1.00000
 Mulliken charges with hydrogens summed into heavy atoms:
               1
     1  C    0.272273
     5  Br  -0.529769
     6  F   -0.742503
 APT charges:
               1
     1  C   -0.707983
     2  H    0.336886
     3  H    0.336885
     4  H    0.336886
     5  Br  -0.364269
     6  F   -0.938405
 Sum of APT charges =  -1.00000
 APT charges with hydrogens summed into heavy atoms:
               1
     1  C    0.302674
     5  Br  -0.364269
     6  F   -0.938405
 Electronic spatial extent (au):  <R**2>=            492.6704
 Charge=             -1.0000 electrons
 Dipole moment (field-independent basis, Debye):
    X=              3.7359    Y=              0.0418    Z=             -0.6602  Tot=              3.7940
 Quadrupole moment (field-independent basis, Debye-Ang):
   XX=            -61.4691   YY=            -32.4678   ZZ=            -33.3700
   XY=             -0.3246   XZ=              5.1257   YZ=              0.0574
 Traceless Quadrupole moment (field-independent basis, Debye-Ang):
   XX=            -19.0334   YY=              9.9678   ZZ=              9.0656
   XY=             -0.3246   XZ=              5.1257   YZ=              0.0574
 Octapole moment (field-independent basis, Debye-Ang**2):
  XXX=             72.5424  YYY=              0.8117  ZZZ=             -0.9645  XYY=              1.1602
  XXY=              0.7626  XXZ=            -12.4030  XZZ=              3.3379  YZZ=             -0.7121
  YYZ=             -0.2472  XYZ=             -0.2685
 Hexadecapole moment (field-independent basis, Debye-Ang**3):
 XXXX=           -614.7713 YYYY=            -41.2065 ZZZZ=            -53.3612 XXXY=             -4.2048
 XXXZ=             67.2257 YYYX=             -2.7518 YYYZ=              0.4874 ZZZX=             35.1510
 ZZZY=              0.0899 XXYY=            -78.1105 XXZZ=            -85.9842 YYZZ=            -15.7282
 XXYZ=              0.6962 YYXZ=             11.4139 ZZXY=             -0.2496
 N-N= 1.600436782118D+02 E-N=-6.807746453519D+03  KE= 2.702640344192D+03
  Exact polarizability:   0.000   0.000   0.000   0.000   0.000   0.000
 Approx polarizability:  31.549   0.221  11.831  -3.485  -0.039  12.444
 Calling FoFJK, ICntrl=    100147 FMM=F ISym2X=0 I1Cent= 0 IOpClX= 0 NMat=1 NMatS=1 NMatT=0.
 ***** Axes restored to original set *****
 -------------------------------------------------------------------
 Center     Atomic                   Forces (Hartrees/Bohr)
 Number     Number              X              Y              Z
 -------------------------------------------------------------------
      1        6           0.039767399    0.034742700   -0.060176219
      2        1           0.004851090    0.014150813   -0.010809574
      3        1           0.004850353    0.002286715   -0.017660130
      4        1           0.015147578    0.005271833   -0.009131365
      5       35          -0.087425184   -0.076378903    0.132291665
      6        9           0.022808764    0.019926842   -0.034514376
 -------------------------------------------------------------------
 Cartesian Forces:  Max     0.132291665 RMS     0.047444768
 FormGI is forming the generalized inverse of G from B-inverse, IUseBI=4.

 GradGradGradGradGradGradGradGradGradGradGradGradGradGradGradGradGradGrad
 Berny optimization.
 Internal  Forces:  Max     0.176005637 RMS     0.038359098
 Search for a saddle point.
 Step number   1 out of a maximum of   33
 All quantities printed in internal units (Hartrees-Bohrs-Radians)
 Swapping is turned off.
 Second derivative matrix not updated -- analytic derivatives used.
 ITU=  0
     Eigenvalues ---   -0.01405   0.03174   0.03195   0.11451   0.11451
     Eigenvalues ---    0.16002   0.19930   0.19930   0.30858   0.39536
     Eigenvalues ---    0.39562   0.39562
 Eigenvectors required to have negative eigenvalues:
                          D1        R5        R4        A7        A4
   1                   -0.64877  -0.49104   0.34916   0.18842   0.18842
                          A8        A6        A3        A9        D3
   1                   -0.18807  -0.18689  -0.18689   0.18502   0.03520
 RFO step:  Lambda0=1.410076487D-02 Lambda=-8.52463893D-02.
 Linear search not attempted -- option 19 set.
 Maximum step size (   0.300) exceeded in Quadratic search.
    -- Step size scaled by   0.454
 Iteration  1 RMS(Cart)=  0.04832651 RMS(Int)=  0.00993866
 Iteration  2 RMS(Cart)=  0.00562683 RMS(Int)=  0.00307591
 Iteration  3 RMS(Cart)=  0.00003380 RMS(Int)=  0.00307554
 Iteration  4 RMS(Cart)=  0.00000013 RMS(Int)=  0.00307554
 Variable       Old X    -DE/DX   Delta X   Delta X   Delta X     New X
                                 (Linear)    (Quad)   (Total)
    R1        2.02201  -0.00791   0.00000  -0.01176  -0.01176   2.01024
    R2        2.02201  -0.00791   0.00000  -0.01176  -0.01176   2.01024
    R3        2.02201  -0.00791   0.00000  -0.01106  -0.01106   2.01095
    R4        3.72276   0.17601   0.00000   0.08183   0.08183   3.80459
    R5        3.23143   0.04592   0.00000   0.23030   0.23030   3.46173
    A1        2.09440  -0.00000   0.00000   0.01471   0.00612   2.10051
    A2        2.09439   0.00000   0.00000  -0.00735  -0.01565   2.07874
    A3        1.57080   0.00562   0.00000   0.06930   0.06960   1.64040
    A4        1.57080  -0.00562   0.00000  -0.06995  -0.07025   1.50055
    A5        2.09440  -0.00000   0.00000  -0.00735  -0.01566   2.07874
    A6        1.57079   0.00562   0.00000   0.06930   0.06961   1.64040
    A7        1.57079  -0.00562   0.00000  -0.06995  -0.07025   1.50055
    A8        1.57080   0.00562   0.00000   0.06980   0.07009   1.64089
    A9        1.57080  -0.00562   0.00000  -0.06849  -0.06879   1.50200
   A10        3.14159  -0.00000   0.00000  -0.00065  -0.00065   3.14095
   A11        3.14160  -0.00000   0.00000   0.00113   0.00113   3.14273
    D1        3.14159   0.01947   0.00000   0.24064   0.23832  -2.90327
    D2        2.09440  -0.00000   0.00000   0.01471   0.01462   2.10901
    D3       -2.09440   0.00000   0.00000  -0.01471  -0.01477  -2.10917
    D4       -2.09439  -0.00000   0.00000   0.00735   0.00731  -2.08708
    D5        2.09439   0.00000   0.00000  -0.00735  -0.00739   2.08700
    D6        2.09440  -0.00000   0.00000  -0.00735  -0.00731   2.08709
    D7       -2.09440   0.00000   0.00000   0.00735   0.00739  -2.08701
         Item               Value     Threshold  Converged?
 Maximum Force            0.176006     0.000450     NO 
 RMS     Force            0.038359     0.000300     NO 
 Maximum Displacement     0.135096     0.001800     NO 
 RMS     Displacement     0.053525     0.001200     NO 
 Predicted change in Energy=-2.612257D-02
 GradGradGradGradGradGradGradGradGradGradGradGradGradGradGradGradGradGrad

                          Input orientation:                          
 ---------------------------------------------------------------------
 Center     Atomic      Atomic             Coordinates (Angstroms)
 Number     Number       Type             X           Y           Z
 ---------------------------------------------------------------------
      1          6           0        0.307746   -0.562814    0.181345
      2          1           0        0.799219   -1.459947   -0.110590
      3          1           0        0.799302    0.138503    0.812333
      4          1           0       -0.576833   -0.266993   -0.330924
      5         35           0       -0.691467   -1.436741    1.695019
      6          9           0        1.218983    0.231760   -1.194898
 ---------------------------------------------------------------------
                    Distance matrix (angstroms):
                    1          2          3          4          5
     1  C    0.000000
     2  H    1.063776   0.000000
     3  H    1.063776   1.845759   0.000000
     4  H    1.064147   1.834449   1.834451   0.000000
     5  Br   2.013302   2.341560   2.341563   2.342199   0.000000
     6  F    1.831869   2.052754   2.052756   2.054304   3.845170
                    6
     6  F    0.000000
 Stoichiometry    CH3BrF(1-)
 Framework group  C1[X(CH3BrF)]
 Deg. of freedom    12
 Full point group                 C1      NOp   1
 Largest Abelian subgroup         C1      NOp   1
 Largest concise Abelian subgroup C1      NOp   1
                         Standard orientation:                         
 ---------------------------------------------------------------------
 Center     Atomic      Atomic             Coordinates (Angstroms)
 Number     Number       Type             X           Y           Z
 ---------------------------------------------------------------------
      1          6           0       -1.014269    0.000002    0.000543
      2          1           0       -1.088459   -0.922832   -0.523376
      3          1           0       -1.088460    0.922928   -0.523215
      4          1           0       -1.088382   -0.000093    1.062106
      5         35           0        0.999033   -0.000000   -0.000248
      6          9           0       -2.846137   -0.000001   -0.001123
 ---------------------------------------------------------------------
 Rotational constants (GHZ):         148.3951316           2.0254790           2.0252529
 Standard basis: 6-31G (6D, 7F)
 There are    48 symmetry adapted cartesian basis functions of A   symmetry.
 There are    48 symmetry adapted basis functions of A   symmetry.
    48 basis functions,   133 primitive gaussians,    48 cartesian basis functions
    27 alpha electrons       27 beta electrons
       nuclear repulsion energy       154.6487404490 Hartrees.
 NAtoms=    6 NActive=    6 NUniq=    6 SFac= 1.00D+00 NAtFMM=   60 NAOKFM=F Big=F
 Integral buffers will be    131072 words long.
 Raffenetti 1 integral format.
 Two-electron integral symmetry is turned on.
 One-electron integrals computed using PRISM.
 NBasis=    48 RedAO= T EigKep=  1.56D-03  NBF=    48
 NBsUse=    48 1.00D-06 EigRej= -1.00D+00 NBFU=    48
 Initial guess from the checkpoint file:  "ch3ftranstion.chk"
 B after Tr=     0.000000   -0.000000    0.000000
         Rot=    0.964378    0.249632    0.085942   -0.016532 Ang=  30.68 deg.
 ExpMin= 1.43D-01 ExpMax= 5.74D+05 ExpMxC= 5.74D+03 IAcc=3 IRadAn=         5 AccDes= 0.00D+00
 Harris functional with IExCor=  205 and IRadAn=       5 diagonalized for initial guess.
 HarFok:  IExCor=  205 AccDes= 0.00D+00 IRadAn=         5 IDoV= 1 UseB2=F ITyADJ=14
 ICtDFT=  3500011 ScaDFX=  1.000000  1.000000  1.000000  1.000000
 FoFCou: FMM=F IPFlag=           0 FMFlag=      100000 FMFlg1=           0
         NFxFlg=           0 DoJE=T BraDBF=F KetDBF=T FulRan=T
         wScrn=  0.000000 ICntrl=       500 IOpCl=  0 I1Cent=   200000004 NGrid=           0
         NMat0=    1 NMatS0=      1 NMatT0=    0 NMatD0=    1 NMtDS0=    0 NMtDT0=    0
 Petite list used in FoFCou.
 Keep R1 ints in memory in canonical form, NReq=1690290.
 Requested convergence on RMS density matrix=1.00D-08 within 128 cycles.
 Requested convergence on MAX density matrix=1.00D-06.
 Requested convergence on             energy=1.00D-06.
 No special actions if energy rises.
 SCF Done:  E(RHF) =  -2708.72474411     A.U. after   12 cycles
            NFock= 12  Conv=0.12D-08     -V/T= 2.0023
 Calling FoFJK, ICntrl=      2127 FMM=F ISym2X=0 I1Cent= 0 IOpClX= 0 NMat=1 NMatS=1 NMatT=0.
 ***** Axes restored to original set *****
 -------------------------------------------------------------------
 Center     Atomic                   Forces (Hartrees/Bohr)
 Number     Number              X              Y              Z
 -------------------------------------------------------------------
      1        6           0.028250276    0.026619962   -0.046107932
      2        1           0.003298977    0.008794720   -0.005268498
      3        1           0.003298315    0.000165756   -0.010250685
      4        1           0.008950993    0.002736247   -0.004739313
      5       35          -0.059634691   -0.052151556    0.090328863
      6        9           0.015836130    0.013834872   -0.023962435
 -------------------------------------------------------------------
 Cartesian Forces:  Max     0.090328863 RMS     0.032851898

 GradGradGradGradGradGradGradGradGradGradGradGradGradGradGradGradGradGrad
 Berny optimization.
 FormGI is forming the generalized inverse of G from B-inverse, IUseBI=4.
 Internal  Forces:  Max     0.120147345 RMS     0.026130422
 Search for a saddle point.
 Step number   2 out of a maximum of   33
 All quantities printed in internal units (Hartrees-Bohrs-Radians)
 Swapping is turned off.
 Update second derivatives using D2CorX and points    1    2
 ITU=  0  0
     Eigenvalues ---   -0.01025   0.03174   0.03190   0.11382   0.11386
     Eigenvalues ---    0.15874   0.19825   0.19828   0.29041   0.39428
     Eigenvalues ---    0.39560   0.39561
 Eigenvectors required to have negative eigenvalues:
                          D1        R5        R4        A4        A7
   1                   -0.64070  -0.50631   0.32639   0.19122   0.19121
                          A8        A6        A3        A9        A2
   1                   -0.19075  -0.19053  -0.19051   0.18931   0.05685
 RFO step:  Lambda0=7.944525099D-03 Lambda=-4.66128311D-02.
 Linear search not attempted -- option 19 set.
 Maximum step size (   0.300) exceeded in Quadratic search.
    -- Step size scaled by   0.499
 Iteration  1 RMS(Cart)=  0.04594164 RMS(Int)=  0.00998360
 Iteration  2 RMS(Cart)=  0.00638900 RMS(Int)=  0.00311617
 Iteration  3 RMS(Cart)=  0.00002769 RMS(Int)=  0.00311590
 Iteration  4 RMS(Cart)=  0.00000013 RMS(Int)=  0.00311590
 Variable       Old X    -DE/DX   Delta X   Delta X   Delta X     New X
                                 (Linear)    (Quad)   (Total)
    R1        2.01024  -0.00445   0.00000  -0.00751  -0.00751   2.00273
    R2        2.01024  -0.00445   0.00000  -0.00751  -0.00751   2.00273
    R3        2.01095  -0.00440   0.00000  -0.00696  -0.00696   2.00399
    R4        3.80459   0.12015   0.00000   0.06395   0.06395   3.86854
    R5        3.46173   0.03188   0.00000   0.23545   0.23545   3.69718
    A1        2.10051  -0.00095   0.00000  -0.00838  -0.01711   2.08340
    A2        2.07874  -0.00072   0.00000  -0.02075  -0.02867   2.05007
    A3        1.64040   0.00333   0.00000   0.06936   0.06985   1.71025
    A4        1.50055  -0.00332   0.00000  -0.06958  -0.07007   1.43048
    A5        2.07874  -0.00072   0.00000  -0.02075  -0.02867   2.05007
    A6        1.64040   0.00333   0.00000   0.06936   0.06985   1.71026
    A7        1.50055  -0.00332   0.00000  -0.06958  -0.07006   1.43048
    A8        1.64089   0.00328   0.00000   0.06926   0.06968   1.71058
    A9        1.50200  -0.00331   0.00000  -0.06880  -0.06924   1.43277
   A10        3.14095   0.00002   0.00000  -0.00022  -0.00022   3.14073
   A11        3.14273  -0.00003   0.00000   0.00040   0.00040   3.14313
    D1       -2.90327   0.01122   0.00000   0.23302   0.22855  -2.67473
    D2        2.10901  -0.00014   0.00000   0.00858   0.00842   2.11743
    D3       -2.10917   0.00014   0.00000  -0.00879  -0.00869  -2.11786
    D4       -2.08708  -0.00007   0.00000   0.00429   0.00421  -2.08287
    D5        2.08700   0.00007   0.00000  -0.00440  -0.00434   2.08266
    D6        2.08709   0.00007   0.00000  -0.00429  -0.00421   2.08288
    D7       -2.08701  -0.00007   0.00000   0.00440   0.00435  -2.08266
         Item               Value     Threshold  Converged?
 Maximum Force            0.120147     0.000450     NO 
 RMS     Force            0.026130     0.000300     NO 
 Maximum Displacement     0.122806     0.001800     NO 
 RMS     Displacement     0.051586     0.001200     NO 
 Predicted change in Energy=-1.489652D-02
 GradGradGradGradGradGradGradGradGradGradGradGradGradGradGradGradGradGrad

                          Input orientation:                          
 ---------------------------------------------------------------------
 Center     Atomic      Atomic             Coordinates (Angstroms)
 Number     Number       Type             X           Y           Z
 ---------------------------------------------------------------------
      1          6           0        0.283040   -0.585569    0.220760
      2          1           0        0.802580   -1.441523   -0.126514
      3          1           0        0.802662    0.143085    0.788418
      4          1           0       -0.555390   -0.260860   -0.341546
      5         35           0       -0.732706   -1.474265    1.760005
      6          9           0        1.256764    0.262899   -1.248839
 ---------------------------------------------------------------------
                    Distance matrix (angstroms):
                    1          2          3          4          5
     1  C    0.000000
     2  H    1.059801   0.000000
     3  H    1.059801   1.829776   0.000000
     4  H    1.060466   1.812260   1.812262   0.000000
     5  Br   2.047143   2.432515   2.432521   2.433168   0.000000
     6  F    1.956466   2.090682   2.090689   2.093181   4.003607
                    6
     6  F    0.000000
 Stoichiometry    CH3BrF(1-)
 Framework group  C1[X(CH3BrF)]
 Deg. of freedom    12
 Full point group                 C1      NOp   1
 Largest Abelian subgroup         C1      NOp   1
 Largest concise Abelian subgroup C1      NOp   1
                         Standard orientation:                         
 ---------------------------------------------------------------------
 Center     Atomic      Atomic             Coordinates (Angstroms)
 Number     Number       Type             X           Y           Z
 ---------------------------------------------------------------------
      1          6           0       -1.011310    0.000006    0.000705
      2          1           0       -1.158900   -0.914861   -0.513507
      3          1           0       -1.158901    0.914916   -0.513431
      4          1           0       -1.158506   -0.000040    1.050906
      5         35           0        1.035833   -0.000001   -0.000371
      6          9           0       -2.967775   -0.000003   -0.001689
 ---------------------------------------------------------------------
 Rotational constants (GHZ):         151.6892683           1.8777035           1.8774063
 Standard basis: 6-31G (6D, 7F)
 There are    48 symmetry adapted cartesian basis functions of A   symmetry.
 There are    48 symmetry adapted basis functions of A   symmetry.
    48 basis functions,   133 primitive gaussians,    48 cartesian basis functions
    27 alpha electrons       27 beta electrons
       nuclear repulsion energy       150.0552305129 Hartrees.
 NAtoms=    6 NActive=    6 NUniq=    6 SFac= 1.00D+00 NAtFMM=   60 NAOKFM=F Big=F
 Integral buffers will be    131072 words long.
 Raffenetti 1 integral format.
 Two-electron integral symmetry is turned on.
 One-electron integrals computed using PRISM.
 NBasis=    48 RedAO= T EigKep=  1.57D-03  NBF=    48
 NBsUse=    48 1.00D-06 EigRej= -1.00D+00 NBFU=    48
 Initial guess from the checkpoint file:  "ch3ftranstion.chk"
 B after Tr=    -0.000000    0.000000   -0.000000
         Rot=    1.000000    0.000023   -0.000001    0.000000 Ang=   0.00 deg.
 ExpMin= 1.43D-01 ExpMax= 5.74D+05 ExpMxC= 5.74D+03 IAcc=3 IRadAn=         5 AccDes= 0.00D+00
 Harris functional with IExCor=  205 and IRadAn=       5 diagonalized for initial guess.
 HarFok:  IExCor=  205 AccDes= 0.00D+00 IRadAn=         5 IDoV= 1 UseB2=F ITyADJ=14
 ICtDFT=  3500011 ScaDFX=  1.000000  1.000000  1.000000  1.000000
 FoFCou: FMM=F IPFlag=           0 FMFlag=      100000 FMFlg1=           0
         NFxFlg=           0 DoJE=T BraDBF=F KetDBF=T FulRan=T
         wScrn=  0.000000 ICntrl=       500 IOpCl=  0 I1Cent=   200000004 NGrid=           0
         NMat0=    1 NMatS0=      1 NMatT0=    0 NMatD0=    1 NMtDS0=    0 NMtDT0=    0
 Petite list used in FoFCou.
 Keep R1 ints in memory in canonical form, NReq=1690079.
 Requested convergence on RMS density matrix=1.00D-08 within 128 cycles.
 Requested convergence on MAX density matrix=1.00D-06.
 Requested convergence on             energy=1.00D-06.
 No special actions if energy rises.
 SCF Done:  E(RHF) =  -2708.74029411     A.U. after   10 cycles
            NFock= 10  Conv=0.98D-08     -V/T= 2.0024
 Calling FoFJK, ICntrl=      2127 FMM=F ISym2X=0 I1Cent= 0 IOpClX= 0 NMat=1 NMatS=1 NMatT=0.
 ***** Axes restored to original set *****
 -------------------------------------------------------------------
 Center     Atomic                   Forces (Hartrees/Bohr)
 Number     Number              X              Y              Z
 -------------------------------------------------------------------
      1        6           0.019031669    0.019600235   -0.033949671
      2        1           0.002690313    0.003794849   -0.001754397
      3        1           0.002689872   -0.000377944   -0.004163425
      4        1           0.003373188    0.001263395   -0.002188033
      5       35          -0.038610550   -0.033766413    0.058485166
      6        9           0.010825508    0.009485878   -0.016429640
 -------------------------------------------------------------------
 Cartesian Forces:  Max     0.058485166 RMS     0.021723913

 GradGradGradGradGradGradGradGradGradGradGradGradGradGradGradGradGradGrad
 Berny optimization.
 FormGI is forming the generalized inverse of G from B-inverse, IUseBI=4.
 Internal  Forces:  Max     0.077791128 RMS     0.016906641
 Search for a saddle point.
 Step number   3 out of a maximum of   33
 All quantities printed in internal units (Hartrees-Bohrs-Radians)
 Swapping is turned off.
 Update second derivatives using D2CorX and points    2    3
 ITU=  0  0  0
     Eigenvalues ---   -0.00162   0.03172   0.03177   0.11179   0.11199
     Eigenvalues ---    0.15484   0.19516   0.19540   0.26593   0.39337
     Eigenvalues ---    0.39557   0.39558
 Eigenvectors required to have negative eigenvalues:
                          D1        R5        R4        A3        A6
   1                   -0.61828  -0.53995   0.27970  -0.19365  -0.19364
                          A7        A4        A9        A8        A1
   1                    0.19301   0.19300   0.19266  -0.19135   0.09361
 RFO step:  Lambda0=4.192409239D-03 Lambda=-2.32905417D-02.
 Linear search not attempted -- option 19 set.
 Maximum step size (   0.300) exceeded in Quadratic search.
    -- Step size scaled by   0.416
 Iteration  1 RMS(Cart)=  0.03947712 RMS(Int)=  0.00980552
 Iteration  2 RMS(Cart)=  0.00708533 RMS(Int)=  0.00303204
 Iteration  3 RMS(Cart)=  0.00002082 RMS(Int)=  0.00303188
 Iteration  4 RMS(Cart)=  0.00000012 RMS(Int)=  0.00303188
 Variable       Old X    -DE/DX   Delta X   Delta X   Delta X     New X
                                 (Linear)    (Quad)   (Total)
    R1        2.00273  -0.00117   0.00000   0.00028   0.00028   2.00302
    R2        2.00273  -0.00117   0.00000   0.00028   0.00028   2.00302
    R3        2.00399  -0.00112   0.00000   0.00021   0.00021   2.00420
    R4        3.86854   0.07779   0.00000   0.01147   0.01147   3.88001
    R5        3.69718   0.02184   0.00000   0.23900   0.23900   3.93619
    A1        2.08340  -0.00121   0.00000  -0.03820  -0.04634   2.03706
    A2        2.05007  -0.00046   0.00000  -0.02977  -0.03713   2.01294
    A3        1.71025   0.00159   0.00000   0.07005   0.07051   1.78076
    A4        1.43048  -0.00155   0.00000  -0.06953  -0.07000   1.36048
    A5        2.05007  -0.00046   0.00000  -0.02977  -0.03713   2.01295
    A6        1.71026   0.00158   0.00000   0.07004   0.07049   1.78075
    A7        1.43048  -0.00155   0.00000  -0.06954  -0.07001   1.36048
    A8        1.71058   0.00140   0.00000   0.06849   0.06868   1.77926
    A9        1.43277  -0.00147   0.00000  -0.06954  -0.06971   1.36306
   A10        3.14073   0.00003   0.00000   0.00052   0.00051   3.14124
   A11        3.14313  -0.00006   0.00000  -0.00090  -0.00089   3.14224
    D1       -2.67473   0.00501   0.00000   0.22407   0.21813  -2.45660
    D2        2.11743  -0.00047   0.00000  -0.00475  -0.00518   2.11225
    D3       -2.11786   0.00048   0.00000   0.00479   0.00534  -2.11252
    D4       -2.08287  -0.00024   0.00000  -0.00238  -0.00259  -2.08547
    D5        2.08266   0.00024   0.00000   0.00240   0.00267   2.08533
    D6        2.08288   0.00024   0.00000   0.00238   0.00259   2.08547
    D7       -2.08266  -0.00024   0.00000  -0.00240  -0.00267  -2.08533
         Item               Value     Threshold  Converged?
 Maximum Force            0.077791     0.000450     NO 
 RMS     Force            0.016907     0.000300     NO 
 Maximum Displacement     0.100453     0.001800     NO 
 RMS     Displacement     0.045480     0.001200     NO 
 Predicted change in Energy=-6.207114D-03
 GradGradGradGradGradGradGradGradGradGradGradGradGradGradGradGradGradGrad

                          Input orientation:                          
 ---------------------------------------------------------------------
 Center     Atomic      Atomic             Coordinates (Angstroms)
 Number     Number       Type             X           Y           Z
 ---------------------------------------------------------------------
      1          6           0        0.254537   -0.610000    0.263066
      2          1           0        0.807133   -1.422328   -0.134747
      3          1           0        0.807213    0.140610    0.767674
      4          1           0       -0.537083   -0.257051   -0.348153
      5         35           0       -0.765114   -1.501064    1.806441
      6          9           0        1.290264    0.293600   -1.301997
 ---------------------------------------------------------------------
                    Distance matrix (angstroms):
                    1          2          3          4          5
     1  C    0.000000
     2  H    1.059950   0.000000
     3  H    1.059950   1.804754   0.000000
     4  H    1.060576   1.791738   1.791740   0.000000
     5  Br   2.053215   2.499274   2.499269   2.498368   0.000000
     6  F    2.082941   2.130797   2.130793   2.133596   4.136156
                    6
     6  F    0.000000
 Stoichiometry    CH3BrF(1-)
 Framework group  C1[X(CH3BrF)]
 Deg. of freedom    12
 Full point group                 C1      NOp   1
 Largest Abelian subgroup         C1      NOp   1
 Largest concise Abelian subgroup C1      NOp   1
                         Standard orientation:                         
 ---------------------------------------------------------------------
 Center     Atomic      Atomic             Coordinates (Angstroms)
 Number     Number       Type             X           Y           Z
 ---------------------------------------------------------------------
      1          6           0       -0.989712   -0.000005    0.000105
      2          1           0       -1.210715   -0.902343   -0.510225
      3          1           0       -1.210713    0.902411   -0.510091
      4          1           0       -1.209027   -0.000083    1.037758
      5         35           0        1.063503    0.000001   -0.000246
      6          9           0       -3.072653    0.000003   -0.001053
 ---------------------------------------------------------------------
 Rotational constants (GHZ):         155.4392789           1.7699639           1.7697698
 Standard basis: 6-31G (6D, 7F)
 There are    48 symmetry adapted cartesian basis functions of A   symmetry.
 There are    48 symmetry adapted basis functions of A   symmetry.
    48 basis functions,   133 primitive gaussians,    48 cartesian basis functions
    27 alpha electrons       27 beta electrons
       nuclear repulsion energy       146.9488977628 Hartrees.
 NAtoms=    6 NActive=    6 NUniq=    6 SFac= 1.00D+00 NAtFMM=   60 NAOKFM=F Big=F
 Integral buffers will be    131072 words long.
 Raffenetti 1 integral format.
 Two-electron integral symmetry is turned on.
 One-electron integrals computed using PRISM.
 NBasis=    48 RedAO= T EigKep=  1.57D-03  NBF=    48
 NBsUse=    48 1.00D-06 EigRej= -1.00D+00 NBFU=    48
 Initial guess from the checkpoint file:  "ch3ftranstion.chk"
 B after Tr=    -0.000000    0.000000    0.000000
         Rot=    1.000000   -0.000016   -0.000010    0.000000 Ang=  -0.00 deg.
 ExpMin= 1.43D-01 ExpMax= 5.74D+05 ExpMxC= 5.74D+03 IAcc=3 IRadAn=         5 AccDes= 0.00D+00
 Harris functional with IExCor=  205 and IRadAn=       5 diagonalized for initial guess.
 HarFok:  IExCor=  205 AccDes= 0.00D+00 IRadAn=         5 IDoV= 1 UseB2=F ITyADJ=14
 ICtDFT=  3500011 ScaDFX=  1.000000  1.000000  1.000000  1.000000
 FoFCou: FMM=F IPFlag=           0 FMFlag=      100000 FMFlg1=           0
         NFxFlg=           0 DoJE=T BraDBF=F KetDBF=T FulRan=T
         wScrn=  0.000000 ICntrl=       500 IOpCl=  0 I1Cent=   200000004 NGrid=           0
         NMat0=    1 NMatS0=      1 NMatT0=    0 NMatD0=    1 NMtDS0=    0 NMtDT0=    0
 Petite list used in FoFCou.
 Keep R1 ints in memory in canonical form, NReq=1689935.
 Requested convergence on RMS density matrix=1.00D-08 within 128 cycles.
 Requested convergence on MAX density matrix=1.00D-06.
 Requested convergence on             energy=1.00D-06.
 No special actions if energy rises.
 SCF Done:  E(RHF) =  -2708.74656265     A.U. after   10 cycles
            NFock= 10  Conv=0.42D-08     -V/T= 2.0024
 Calling FoFJK, ICntrl=      2127 FMM=F ISym2X=0 I1Cent= 0 IOpClX= 0 NMat=1 NMatS=1 NMatT=0.
 ***** Axes restored to original set *****
 -------------------------------------------------------------------
 Center     Atomic                   Forces (Hartrees/Bohr)
 Number     Number              X              Y              Z
 -------------------------------------------------------------------
      1        6           0.014572458    0.015060945   -0.026085155
      2        1           0.001325521    0.000644382    0.000310618
      3        1           0.001325314   -0.000591265   -0.000403539
      4        1           0.000241426    0.000165493   -0.000286237
      5       35          -0.025058582   -0.021952666    0.038022592
      6        9           0.007593863    0.006673112   -0.011558278
 -------------------------------------------------------------------
 Cartesian Forces:  Max     0.038022592 RMS     0.014749180

 GradGradGradGradGradGradGradGradGradGradGradGradGradGradGradGradGradGrad
 Berny optimization.
 FormGI is forming the generalized inverse of G from B-inverse, IUseBI=4.
 Internal  Forces:  Max     0.050552613 RMS     0.011020704
 Search for a saddle point.
 Step number   4 out of a maximum of   33
 All quantities printed in internal units (Hartrees-Bohrs-Radians)
 Swapping is turned off.
 Update second derivatives using D2CorX and points    3    4
 ITU=  0  0  0  0
     Eigenvalues ---    0.00242   0.03142   0.03166   0.10863   0.10897
     Eigenvalues ---    0.15070   0.19040   0.19095   0.26248   0.39330
     Eigenvalues ---    0.39553   0.39554
 Eigenvectors required to have negative eigenvalues:
                          R5        D1        R4        A3        A6
   1                   -0.57824  -0.57335   0.26005  -0.19147  -0.19147
                          A7        A4        A9        A8        A1
   1                    0.19074   0.19073   0.18961  -0.18809   0.14861
 RFO step:  Lambda0=4.938558482D-03 Lambda=-1.07581447D-02.
 Linear search not attempted -- option 19 set.
 Iteration  1 RMS(Cart)=  0.05101394 RMS(Int)=  0.00317217
 Iteration  2 RMS(Cart)=  0.00285909 RMS(Int)=  0.00073174
 Iteration  3 RMS(Cart)=  0.00000004 RMS(Int)=  0.00073174
 Variable       Old X    -DE/DX   Delta X   Delta X   Delta X     New X
                                 (Linear)    (Quad)   (Total)
    R1        2.00302   0.00008   0.00000   0.00056   0.00056   2.00357
    R2        2.00302   0.00008   0.00000   0.00055   0.00055   2.00357
    R3        2.00420   0.00004   0.00000  -0.00052  -0.00052   2.00368
    R4        3.88001   0.05055   0.00000   0.12930   0.12930   4.00931
    R5        3.93619   0.01536   0.00000   0.21460   0.21460   4.15079
    A1        2.03706  -0.00065   0.00000  -0.04472  -0.04633   1.99073
    A2        2.01294   0.00014   0.00000  -0.01452  -0.01643   1.99651
    A3        1.78076   0.00022   0.00000   0.03703   0.03708   1.81783
    A4        1.36048  -0.00022   0.00000  -0.03616  -0.03621   1.32427
    A5        2.01295   0.00013   0.00000  -0.01452  -0.01644   1.99651
    A6        1.78075   0.00022   0.00000   0.03702   0.03707   1.81782
    A7        1.36048  -0.00022   0.00000  -0.03618  -0.03622   1.32426
    A8        1.77926   0.00012   0.00000   0.03487   0.03475   1.81400
    A9        1.36306  -0.00011   0.00000  -0.03663  -0.03647   1.32659
   A10        3.14124  -0.00000   0.00000   0.00087   0.00087   3.14211
   A11        3.14224   0.00000   0.00000  -0.00155  -0.00153   3.14071
    D1       -2.45660   0.00076   0.00000   0.11584   0.11440  -2.34220
    D2        2.11225  -0.00054   0.00000  -0.02082  -0.02106   2.09119
    D3       -2.11252   0.00054   0.00000   0.02143   0.02176  -2.09076
    D4       -2.08547  -0.00027   0.00000  -0.01042  -0.01053  -2.09600
    D5        2.08533   0.00027   0.00000   0.01071   0.01088   2.09621
    D6        2.08547   0.00027   0.00000   0.01041   0.01052   2.09599
    D7       -2.08533  -0.00027   0.00000  -0.01071  -0.01088  -2.09622
         Item               Value     Threshold  Converged?
 Maximum Force            0.050553     0.000450     NO 
 RMS     Force            0.011021     0.000300     NO 
 Maximum Displacement     0.131128     0.001800     NO 
 RMS     Displacement     0.052993     0.001200     NO 
 Predicted change in Energy=-4.827657D-03
 GradGradGradGradGradGradGradGradGradGradGradGradGradGradGradGradGradGrad

                          Input orientation:                          
 ---------------------------------------------------------------------
 Center     Atomic      Atomic             Coordinates (Angstroms)
 Number     Number       Type             X           Y           Z
 ---------------------------------------------------------------------
      1          6           0        0.239210   -0.620757    0.281688
      2          1           0        0.815298   -1.406785   -0.135923
      3          1           0        0.815376    0.133850    0.753617
      4          1           0       -0.526678   -0.254083   -0.353300
      5         35           0       -0.815774   -1.541118    1.875831
      6          9           0        1.329517    0.332660   -1.369630
 ---------------------------------------------------------------------
                    Distance matrix (angstroms):
                    1          2          3          4          5
     1  C    0.000000
     2  H    1.060244   0.000000
     3  H    1.060244   1.778999   0.000000
     4  H    1.060303   1.782378   1.782377   0.000000
     5  Br   2.121637   2.593375   2.593363   2.590186   0.000000
     6  F    2.196503   2.193655   2.193638   2.196054   4.318140
                    6
     6  F    0.000000
 Stoichiometry    CH3BrF(1-)
 Framework group  C1[X(CH3BrF)]
 Deg. of freedom    12
 Full point group                 C1      NOp   1
 Largest Abelian subgroup         C1      NOp   1
 Largest concise Abelian subgroup C1      NOp   1
                         Standard orientation:                         
 ---------------------------------------------------------------------
 Center     Atomic      Atomic             Coordinates (Angstroms)
 Number     Number       Type             X           Y           Z
 ---------------------------------------------------------------------
      1          6           0       -1.013489   -0.000736    0.000015
      2          1           0       -1.272544   -0.516494    0.889397
      3          1           0       -1.272544   -0.516089   -0.889602
      4          1           0       -1.269232    1.028263    0.000248
      5         35           0        1.108148    0.000097   -0.000002
      6          9           0       -3.209992    0.000593   -0.000007
 ---------------------------------------------------------------------
 Rotational constants (GHZ):         158.0445944           1.6275733           1.6275309
 Standard basis: 6-31G (6D, 7F)
 There are    48 symmetry adapted cartesian basis functions of A   symmetry.
 There are    48 symmetry adapted basis functions of A   symmetry.
    48 basis functions,   133 primitive gaussians,    48 cartesian basis functions
    27 alpha electrons       27 beta electrons
       nuclear repulsion energy       141.8100246228 Hartrees.
 NAtoms=    6 NActive=    6 NUniq=    6 SFac= 1.00D+00 NAtFMM=   60 NAOKFM=F Big=F
 Integral buffers will be    131072 words long.
 Raffenetti 1 integral format.
 Two-electron integral symmetry is turned on.
 One-electron integrals computed using PRISM.
 NBasis=    48 RedAO= T EigKep=  1.58D-03  NBF=    48
 NBsUse=    48 1.00D-06 EigRej= -1.00D+00 NBFU=    48
 Initial guess from the checkpoint file:  "ch3ftranstion.chk"
 B after Tr=     0.000000   -0.000000    0.000000
         Rot=    0.707161    0.707053   -0.000007    0.000007 Ang=  89.99 deg.
 ExpMin= 1.43D-01 ExpMax= 5.74D+05 ExpMxC= 5.74D+03 IAcc=3 IRadAn=         5 AccDes= 0.00D+00
 Harris functional with IExCor=  205 and IRadAn=       5 diagonalized for initial guess.
 HarFok:  IExCor=  205 AccDes= 0.00D+00 IRadAn=         5 IDoV= 1 UseB2=F ITyADJ=14
 ICtDFT=  3500011 ScaDFX=  1.000000  1.000000  1.000000  1.000000
 FoFCou: FMM=F IPFlag=           0 FMFlag=      100000 FMFlg1=           0
         NFxFlg=           0 DoJE=T BraDBF=F KetDBF=T FulRan=T
         wScrn=  0.000000 ICntrl=       500 IOpCl=  0 I1Cent=   200000004 NGrid=           0
         NMat0=    1 NMatS0=      1 NMatT0=    0 NMatD0=    1 NMtDS0=    0 NMtDT0=    0
 Petite list used in FoFCou.
 Keep R1 ints in memory in canonical form, NReq=1689791.
 Requested convergence on RMS density matrix=1.00D-08 within 128 cycles.
 Requested convergence on MAX density matrix=1.00D-06.
 Requested convergence on             energy=1.00D-06.
 No special actions if energy rises.
 SCF Done:  E(RHF) =  -2708.75268452     A.U. after   10 cycles
            NFock= 10  Conv=0.86D-08     -V/T= 2.0025
 Calling FoFJK, ICntrl=      2127 FMM=F ISym2X=0 I1Cent= 0 IOpClX= 0 NMat=1 NMatS=1 NMatT=0.
 ***** Axes restored to original set *****
 -------------------------------------------------------------------
 Center     Atomic                   Forces (Hartrees/Bohr)
 Number     Number              X              Y              Z
 -------------------------------------------------------------------
      1        6           0.013614210    0.011765836   -0.020376707
      2        1          -0.000957460   -0.004166771    0.002094768
      3        1          -0.000956922    0.000269198    0.004655116
      4        1          -0.003925443   -0.000918748    0.001591452
      5       35          -0.009817609   -0.008713828    0.015091707
      6        9           0.002043223    0.001764313   -0.003056337
 -------------------------------------------------------------------
 Cartesian Forces:  Max     0.020376707 RMS     0.008232076

 GradGradGradGradGradGradGradGradGradGradGradGradGradGradGradGradGradGrad
 Berny optimization.
 FormGI is forming the generalized inverse of G from B-inverse, IUseBI=4.
 Internal  Forces:  Max     0.020001352 RMS     0.004507403
 Search for a saddle point.
 Step number   5 out of a maximum of   33
 All quantities printed in internal units (Hartrees-Bohrs-Radians)
 Swapping is turned off.
 Update second derivatives using D2CorX and points    4    5
 ITU=  0  0  0  0  0
     Eigenvalues ---    0.02490   0.03146   0.03161   0.10660   0.10689
     Eigenvalues ---    0.12531   0.18758   0.18802   0.20816   0.39242
     Eigenvalues ---    0.39550   0.39551
 Eigenvectors required to have negative eigenvalues:
                          R5        D1        R4        A2        A5
   1                   -0.55015  -0.50741   0.22080   0.21574   0.21573
                          A4        A7        A8        A6        A3
   1                    0.20663   0.20651  -0.20073  -0.19596  -0.19585
 RFO step:  Lambda0=2.677460763D-02 Lambda=-2.58736448D-03.
 Linear search not attempted -- option 19 set.
 Iteration  1 RMS(Cart)=  0.03415635 RMS(Int)=  0.00041392
 Iteration  2 RMS(Cart)=  0.00024161 RMS(Int)=  0.00032515
 Iteration  3 RMS(Cart)=  0.00000009 RMS(Int)=  0.00032515
 Variable       Old X    -DE/DX   Delta X   Delta X   Delta X     New X
                                 (Linear)    (Quad)   (Total)
    R1        2.00357   0.00174   0.00000   0.00631   0.00631   2.00988
    R2        2.00357   0.00174   0.00000   0.00631   0.00631   2.00988
    R3        2.00368   0.00156   0.00000   0.00725   0.00725   2.01094
    R4        4.00931   0.02000   0.00000   0.07666   0.07666   4.08597
    R5        4.15079   0.00408   0.00000   0.14258   0.14258   4.29337
    A1        1.99073   0.00101   0.00000   0.00716   0.00610   1.99683
    A2        1.99651   0.00140   0.00000  -0.02644  -0.02687   1.96964
    A3        1.81783  -0.00170   0.00000   0.01894   0.01908   1.83691
    A4        1.32427   0.00161   0.00000  -0.02229  -0.02238   1.30189
    A5        1.99651   0.00140   0.00000  -0.02645  -0.02688   1.96963
    A6        1.81782  -0.00169   0.00000   0.01900   0.01918   1.83700
    A7        1.32426   0.00161   0.00000  -0.02223  -0.02227   1.30199
    A8        1.81400  -0.00151   0.00000   0.02091   0.02104   1.83504
    A9        1.32659   0.00169   0.00000  -0.01436  -0.01454   1.31205
   A10        3.14211  -0.00009   0.00000  -0.00335  -0.00330   3.13881
   A11        3.14071   0.00015   0.00000   0.00579   0.00580   3.14651
    D1       -2.34220  -0.00456   0.00000   0.04577   0.04491  -2.29729
    D2        2.09119  -0.00034   0.00000   0.02453   0.02447   2.11566
    D3       -2.09076   0.00026   0.00000  -0.02734  -0.02753  -2.11829
    D4       -2.09600  -0.00017   0.00000   0.01228   0.01226  -2.08375
    D5        2.09621   0.00013   0.00000  -0.01366  -0.01374   2.08247
    D6        2.09599   0.00017   0.00000  -0.01225  -0.01221   2.08378
    D7       -2.09622  -0.00013   0.00000   0.01369   0.01379  -2.08242
         Item               Value     Threshold  Converged?
 Maximum Force            0.020001     0.000450     NO 
 RMS     Force            0.004507     0.000300     NO 
 Maximum Displacement     0.086789     0.001800     NO 
 RMS     Displacement     0.034178     0.001200     NO 
 Predicted change in Energy=-1.737805D-04
 GradGradGradGradGradGradGradGradGradGradGradGradGradGradGradGradGradGrad

                          Input orientation:                          
 ---------------------------------------------------------------------
 Center     Atomic      Atomic             Coordinates (Angstroms)
 Number     Number       Type             X           Y           Z
 ---------------------------------------------------------------------
      1          6           0        0.232451   -0.628235    0.294730
      2          1           0        0.808456   -1.405605   -0.146999
      3          1           0        0.808534    0.142932    0.747103
      4          1           0       -0.522554   -0.253231   -0.354684
      5         35           0       -0.837710   -1.567732    1.921758
      6          9           0        1.367771    0.355638   -1.409625
 ---------------------------------------------------------------------
                    Distance matrix (angstroms):
                    1          2          3          4          5
     1  C    0.000000
     2  H    1.063584   0.000000
     3  H    1.063584   1.788124   0.000000
     4  H    1.064142   1.772762   1.772759   0.000000
     5  Br   2.162203   2.648755   2.648832   2.647531   0.000000
     6  F    2.271955   2.238087   2.238183   2.248766   4.434141
                    6
     6  F    0.000000
 Stoichiometry    CH3BrF(1-)
 Framework group  C1[X(CH3BrF)]
 Deg. of freedom    12
 Full point group                 C1      NOp   1
 Largest Abelian subgroup         C1      NOp   1
 Largest concise Abelian subgroup C1      NOp   1
                         Standard orientation:                         
 ---------------------------------------------------------------------
 Center     Atomic      Atomic             Coordinates (Angstroms)
 Number     Number       Type             X           Y           Z
 ---------------------------------------------------------------------
      1          6           0       -1.026265    0.000089    0.004068
      2          1           0       -1.307154   -0.894115   -0.498634
      3          1           0       -1.307165    0.894008   -0.499137
      4          1           0       -1.301871    0.000380    1.031900
      5         35           0        1.135933   -0.000011   -0.000830
      6          9           0       -3.298208   -0.000046   -0.003275
 ---------------------------------------------------------------------
 Rotational constants (GHZ):         158.6022431           1.5462218           1.5460517
 Standard basis: 6-31G (6D, 7F)
 There are    48 symmetry adapted cartesian basis functions of A   symmetry.
 There are    48 symmetry adapted basis functions of A   symmetry.
    48 basis functions,   133 primitive gaussians,    48 cartesian basis functions
    27 alpha electrons       27 beta electrons
       nuclear repulsion energy       138.7666103205 Hartrees.
 NAtoms=    6 NActive=    6 NUniq=    6 SFac= 1.00D+00 NAtFMM=   60 NAOKFM=F Big=F
 Integral buffers will be    131072 words long.
 Raffenetti 1 integral format.
 Two-electron integral symmetry is turned on.
 One-electron integrals computed using PRISM.
 NBasis=    48 RedAO= T EigKep=  1.58D-03  NBF=    48
 NBsUse=    48 1.00D-06 EigRej= -1.00D+00 NBFU=    48
 Initial guess from the checkpoint file:  "ch3ftranstion.chk"
 B after Tr=    -0.000000    0.000000   -0.000000
         Rot=    0.707287   -0.706927   -0.000010    0.000010 Ang= -89.97 deg.
 ExpMin= 1.43D-01 ExpMax= 5.74D+05 ExpMxC= 5.74D+03 IAcc=3 IRadAn=         5 AccDes= 0.00D+00
 Harris functional with IExCor=  205 and IRadAn=       5 diagonalized for initial guess.
 HarFok:  IExCor=  205 AccDes= 0.00D+00 IRadAn=         5 IDoV= 1 UseB2=F ITyADJ=14
 ICtDFT=  3500011 ScaDFX=  1.000000  1.000000  1.000000  1.000000
 FoFCou: FMM=F IPFlag=           0 FMFlag=      100000 FMFlg1=           0
         NFxFlg=           0 DoJE=T BraDBF=F KetDBF=T FulRan=T
         wScrn=  0.000000 ICntrl=       500 IOpCl=  0 I1Cent=   200000004 NGrid=           0
         NMat0=    1 NMatS0=      1 NMatT0=    0 NMatD0=    1 NMtDS0=    0 NMtDT0=    0
 Petite list used in FoFCou.
 Keep R1 ints in memory in canonical form, NReq=1689667.
 Requested convergence on RMS density matrix=1.00D-08 within 128 cycles.
 Requested convergence on MAX density matrix=1.00D-06.
 Requested convergence on             energy=1.00D-06.
 No special actions if energy rises.
 SCF Done:  E(RHF) =  -2708.75311677     A.U. after   10 cycles
            NFock= 10  Conv=0.48D-08     -V/T= 2.0025
 Calling FoFJK, ICntrl=      2127 FMM=F ISym2X=0 I1Cent= 0 IOpClX= 0 NMat=1 NMatS=1 NMatT=0.
 ***** Axes restored to original set *****
 -------------------------------------------------------------------
 Center     Atomic                   Forces (Hartrees/Bohr)
 Number     Number              X              Y              Z
 -------------------------------------------------------------------
      1        6           0.011123534    0.012161783   -0.021077372
      2        1          -0.001202424   -0.003944514    0.005487667
      3        1          -0.001202820   -0.002781170    0.006166121
      4        1          -0.005126018   -0.002459709    0.004258657
      5       35          -0.002635335   -0.002274140    0.003945867
      6        9          -0.000956937   -0.000702251    0.001219060
 -------------------------------------------------------------------
 Cartesian Forces:  Max     0.021077372 RMS     0.007036665

 GradGradGradGradGradGradGradGradGradGradGradGradGradGradGradGradGradGrad
 Berny optimization.
 FormGI is forming the generalized inverse of G from B-inverse, IUseBI=4.
 Internal  Forces:  Max     0.006862268 RMS     0.002544905
 Search for a saddle point.
 Step number   6 out of a maximum of   33
 All quantities printed in internal units (Hartrees-Bohrs-Radians)
 Swapping is turned off.
 Update second derivatives using D2CorX and points    4    5    6
 ITU=  0  0  0  0  0  0
     Eigenvalues ---    0.03086   0.03158   0.03233   0.08934   0.10598
     Eigenvalues ---    0.10635   0.18542   0.18658   0.20788   0.39223
     Eigenvalues ---    0.39545   0.39550
 Eigenvectors required to have negative eigenvalues:
                          R5        A1        D3        D1        D2
   1                   -0.50559   0.38349  -0.37464  -0.36511   0.35709
                          D7        D5        D6        D4        A5
   1                    0.18931  -0.18532  -0.17996   0.17712  -0.10008
 RFO step:  Lambda0=3.117426556D-02 Lambda=-3.08639643D-03.
 Linear search not attempted -- option 19 set.
 Iteration  1 RMS(Cart)=  0.05576664 RMS(Int)=  0.00348929
 Iteration  2 RMS(Cart)=  0.00275452 RMS(Int)=  0.00190880
 Iteration  3 RMS(Cart)=  0.00000407 RMS(Int)=  0.00190879
 Iteration  4 RMS(Cart)=  0.00000001 RMS(Int)=  0.00190879
 Variable       Old X    -DE/DX   Delta X   Delta X   Delta X     New X
                                 (Linear)    (Quad)   (Total)
    R1        2.00988  -0.00005   0.00000   0.00283   0.00283   2.01271
    R2        2.00988  -0.00005   0.00000   0.00279   0.00279   2.01267
    R3        2.01094   0.00017   0.00000  -0.00598  -0.00598   2.00495
    R4        4.08597   0.00526   0.00000   0.06151   0.06151   4.14748
    R5        4.29337  -0.00170   0.00000   0.06102   0.06102   4.35440
    A1        1.99683   0.00087   0.00000  -0.13083  -0.13829   1.85853
    A2        1.96964   0.00299   0.00000   0.10756   0.10654   2.07618
    A3        1.83691  -0.00245   0.00000  -0.02927  -0.02873   1.80818
    A4        1.30189   0.00254   0.00000   0.03890   0.03891   1.34080
    A5        1.96963   0.00299   0.00000   0.10868   0.10767   2.07730
    A6        1.83700  -0.00247   0.00000  -0.02991  -0.02850   1.80850
    A7        1.30199   0.00253   0.00000   0.03821   0.03908   1.34107
    A8        1.83504  -0.00336   0.00000  -0.04276  -0.04150   1.79354
    A9        1.31205   0.00319   0.00000   0.02358   0.02245   1.33450
   A10        3.13881   0.00009   0.00000   0.00962   0.01018   3.14899
   A11        3.14651  -0.00015   0.00000  -0.01726  -0.01659   3.12992
    D1       -2.29729  -0.00686   0.00000  -0.01521  -0.01836  -2.31565
    D2        2.11566  -0.00138   0.00000  -0.17830  -0.17763   1.93803
    D3       -2.11829   0.00149   0.00000   0.18795   0.18557  -1.93272
    D4       -2.08375  -0.00069   0.00000  -0.08867  -0.08813  -2.17188
    D5        2.08247   0.00074   0.00000   0.09319   0.09219   2.17466
    D6        2.08378   0.00069   0.00000   0.08964   0.08949   2.17327
    D7       -2.08242  -0.00075   0.00000  -0.09477  -0.09338  -2.17580
         Item               Value     Threshold  Converged?
 Maximum Force            0.006862     0.000450     NO 
 RMS     Force            0.002545     0.000300     NO 
 Maximum Displacement     0.113822     0.001800     NO 
 RMS     Displacement     0.055716     0.001200     NO 
 Predicted change in Energy= 4.476005D-04
 GradGradGradGradGradGradGradGradGradGradGradGradGradGradGradGradGradGrad

                          Input orientation:                          
 ---------------------------------------------------------------------
 Center     Atomic      Atomic             Coordinates (Angstroms)
 Number     Number       Type             X           Y           Z
 ---------------------------------------------------------------------
      1          6           0        0.223575   -0.615639    0.273337
      2          1           0        0.856054   -1.393262   -0.086767
      3          1           0        0.856468    0.084607    0.766748
      4          1           0       -0.554098   -0.255084   -0.351876
      5         35           0       -0.877143   -1.565379    1.917523
      6          9           0        1.352092    0.388523   -1.466681
 ---------------------------------------------------------------------
                    Distance matrix (angstroms):
                    1          2          3          4          5
     1  C    0.000000
     2  H    1.065083   0.000000
     3  H    1.065060   1.706630   0.000000
     4  H    1.060975   1.831464   1.832050   0.000000
     5  Br   2.194752   2.655330   2.655588   2.640342   0.000000
     6  F    2.304247   2.307591   2.307859   2.300126   4.498896
                    6
     6  F    0.000000
 Stoichiometry    CH3BrF(1-)
 Framework group  C1[X(CH3BrF)]
 Deg. of freedom    12
 Full point group                 C1      NOp   1
 Largest Abelian subgroup         C1      NOp   1
 Largest concise Abelian subgroup C1      NOp   1
                         Standard orientation:                         
 ---------------------------------------------------------------------
 Center     Atomic      Atomic             Coordinates (Angstroms)
 Number     Number       Type             X           Y           Z
 ---------------------------------------------------------------------
      1          6           0       -1.044208    0.007676    0.000303
      2          1           0       -1.292027    0.592852   -0.854423
      3          1           0       -1.292077    0.596897    0.852202
      4          1           0       -1.283502   -1.025960    0.002103
      5         35           0        1.150519   -0.002757   -0.000025
      6          9           0       -3.348366   -0.012594   -0.000092
 ---------------------------------------------------------------------
 Rotational constants (GHZ):         155.7123498           1.5040207           1.5026334
 Standard basis: 6-31G (6D, 7F)
 There are    48 symmetry adapted cartesian basis functions of A   symmetry.
 There are    48 symmetry adapted basis functions of A   symmetry.
    48 basis functions,   133 primitive gaussians,    48 cartesian basis functions
    27 alpha electrons       27 beta electrons
       nuclear repulsion energy       137.0908590886 Hartrees.
 NAtoms=    6 NActive=    6 NUniq=    6 SFac= 1.00D+00 NAtFMM=   60 NAOKFM=F Big=F
 Integral buffers will be    131072 words long.
 Raffenetti 1 integral format.
 Two-electron integral symmetry is turned on.
 One-electron integrals computed using PRISM.
 NBasis=    48 RedAO= T EigKep=  1.58D-03  NBF=    48
 NBsUse=    48 1.00D-06 EigRej= -1.00D+00 NBFU=    48
 Initial guess from the checkpoint file:  "ch3ftranstion.chk"
 B after Tr=    -0.000000   -0.000000   -0.000000
         Rot=    0.707778   -0.706435   -0.000004   -0.000004 Ang= -89.89 deg.
 ExpMin= 1.43D-01 ExpMax= 5.74D+05 ExpMxC= 5.74D+03 IAcc=3 IRadAn=         5 AccDes= 0.00D+00
 Harris functional with IExCor=  205 and IRadAn=       5 diagonalized for initial guess.
 HarFok:  IExCor=  205 AccDes= 0.00D+00 IRadAn=         5 IDoV= 1 UseB2=F ITyADJ=14
 ICtDFT=  3500011 ScaDFX=  1.000000  1.000000  1.000000  1.000000
 FoFCou: FMM=F IPFlag=           0 FMFlag=      100000 FMFlg1=           0
         NFxFlg=           0 DoJE=T BraDBF=F KetDBF=T FulRan=T
         wScrn=  0.000000 ICntrl=       500 IOpCl=  0 I1Cent=   200000004 NGrid=           0
         NMat0=    1 NMatS0=      1 NMatT0=    0 NMatD0=    1 NMtDS0=    0 NMtDT0=    0
 Petite list used in FoFCou.
 Keep R1 ints in memory in canonical form, NReq=1689652.
 Requested convergence on RMS density matrix=1.00D-08 within 128 cycles.
 Requested convergence on MAX density matrix=1.00D-06.
 Requested convergence on             energy=1.00D-06.
 No special actions if energy rises.
 SCF Done:  E(RHF) =  -2708.75215891     A.U. after   11 cycles
            NFock= 11  Conv=0.26D-08     -V/T= 2.0025
 Calling FoFJK, ICntrl=      2127 FMM=F ISym2X=0 I1Cent= 0 IOpClX= 0 NMat=1 NMatS=1 NMatT=0.
 ***** Axes restored to original set *****
 -------------------------------------------------------------------
 Center     Atomic                   Forces (Hartrees/Bohr)
 Number     Number              X              Y              Z
 -------------------------------------------------------------------
      1        6           0.026492780    0.005029383   -0.008943839
      2        1          -0.011320587   -0.007393617   -0.004793250
      3        1          -0.011355092    0.007895824    0.004008315
      4        1           0.000274983   -0.000579246    0.001121745
      5       35          -0.001086093   -0.001696259    0.002960367
      6        9          -0.003005991   -0.003256085    0.005646661
 -------------------------------------------------------------------
 Cartesian Forces:  Max     0.026492780 RMS     0.008453509

 GradGradGradGradGradGradGradGradGradGradGradGradGradGradGradGradGradGrad
 Berny optimization.
 FormGI is forming the generalized inverse of G from B-inverse, IUseBI=4.
 Internal  Forces:  Max     0.007155153 RMS     0.003303918
 Search for a saddle point.
 Step number   7 out of a maximum of   33
 All quantities printed in internal units (Hartrees-Bohrs-Radians)
 Swapping is turned off.
 Update second derivatives using D2CorX and points    5    6    7
 ITU=  0  0  0  0  0  0  0
     Eigenvalues ---    0.03160   0.03162   0.03994   0.08768   0.10634
     Eigenvalues ---    0.10919   0.18770   0.19188   0.20892   0.39228
     Eigenvalues ---    0.39551   0.39576
 Eigenvectors required to have negative eigenvalues:
                          D5        D7        D4        D6        A2
   1                    0.44040   0.43017  -0.41497  -0.40389   0.38225
                          A5        A10       A7        A11       R5
   1                   -0.35738  -0.05513   0.05416  -0.03717  -0.03515
 RFO step:  Lambda0=3.160466836D-02 Lambda=-5.06182745D-03.
 Linear search not attempted -- option 19 set.
 Iteration  1 RMS(Cart)=  0.06244697 RMS(Int)=  0.00473154
 Iteration  2 RMS(Cart)=  0.00329432 RMS(Int)=  0.00262993
 Iteration  3 RMS(Cart)=  0.00001271 RMS(Int)=  0.00262990
 Iteration  4 RMS(Cart)=  0.00000004 RMS(Int)=  0.00262990
 Variable       Old X    -DE/DX   Delta X   Delta X   Delta X     New X
                                 (Linear)    (Quad)   (Total)
    R1        2.01271   0.00030   0.00000  -0.00089  -0.00089   2.01183
    R2        2.01267   0.00030   0.00000  -0.01118  -0.01118   2.00149
    R3        2.00495  -0.00106   0.00000  -0.00096  -0.00096   2.00399
    R4        4.14748   0.00350   0.00000   0.02986   0.02986   4.17734
    R5        4.35440  -0.00716   0.00000  -0.16537  -0.16537   4.18903
    A1        1.85853   0.00623   0.00000   0.12482   0.12706   1.98560
    A2        2.07618  -0.00204   0.00000  -0.16010  -0.16437   1.91181
    A3        1.80818  -0.00245   0.00000  -0.02502  -0.02821   1.77998
    A4        1.34080   0.00161   0.00000   0.03708   0.04106   1.38186
    A5        2.07730  -0.00207   0.00000   0.09336   0.09486   2.17217
    A6        1.80850  -0.00247   0.00000  -0.03272  -0.03562   1.77289
    A7        1.34107   0.00160   0.00000   0.00637   0.00946   1.35053
    A8        1.79354   0.00192   0.00000  -0.01700  -0.01878   1.77476
    A9        1.33450  -0.00047   0.00000   0.02840   0.03356   1.36806
   A10        3.14899  -0.00084   0.00000   0.01206   0.01286   3.16184
   A11        3.12992   0.00122   0.00000   0.02293   0.02180   3.15171
    D1       -2.31565  -0.00543   0.00000  -0.12830  -0.12173  -2.43738
    D2        1.93803   0.00505   0.00000   0.11540   0.11531   2.05335
    D3       -1.93272  -0.00565   0.00000  -0.12027  -0.11977  -2.05249
    D4       -2.17188   0.00250   0.00000   0.19784   0.19714  -1.97474
    D5        2.17466  -0.00281   0.00000  -0.20942  -0.20657   1.96810
    D6        2.17327  -0.00255   0.00000   0.08244   0.08182   2.25510
    D7       -2.17580   0.00285   0.00000  -0.08915  -0.08680  -2.26260
         Item               Value     Threshold  Converged?
 Maximum Force            0.007155     0.000450     NO 
 RMS     Force            0.003304     0.000300     NO 
 Maximum Displacement     0.148292     0.001800     NO 
 RMS     Displacement     0.062975     0.001200     NO 
 Predicted change in Energy=-9.377897D-04
 GradGradGradGradGradGradGradGradGradGradGradGradGradGradGradGradGradGrad

                          Input orientation:                          
 ---------------------------------------------------------------------
 Center     Atomic      Atomic             Coordinates (Angstroms)
 Number     Number       Type             X           Y           Z
 ---------------------------------------------------------------------
      1          6           0        0.249788   -0.589685    0.263265
      2          1           0        0.786871   -1.414827   -0.141809
      3          1           0        0.860791    0.106802    0.776459
      4          1           0       -0.541312   -0.325491   -0.391676
      5         35           0       -0.848210   -1.532416    1.934254
      6          9           0        1.349021    0.399384   -1.388208
 ---------------------------------------------------------------------
                    Distance matrix (angstroms):
                    1          2          3          4          5
     1  C    0.000000
     2  H    1.064614   0.000000
     3  H    1.059144   1.778774   0.000000
     4  H    1.060465   1.735845   1.875449   0.000000
     5  Br   2.210554   2.645252   2.635946   2.638334   0.000000
     6  F    2.216739   2.271758   2.238249   2.256519   4.427012
                    6
     6  F    0.000000
 Stoichiometry    CH3BrF(1-)
 Framework group  C1[X(CH3BrF)]
 Deg. of freedom    12
 Full point group                 C1      NOp   1
 Largest Abelian subgroup         C1      NOp   1
 Largest concise Abelian subgroup C1      NOp   1
                         Standard orientation:                         
 ---------------------------------------------------------------------
 Center     Atomic      Atomic             Coordinates (Angstroms)
 Number     Number       Type             X           Y           Z
 ---------------------------------------------------------------------
      1          6           0       -1.071148   -0.009668   -0.010921
      2          1           0       -1.284565   -0.218120   -1.032882
      3          1           0       -1.290901    0.985737    0.276594
      4          1           0       -1.285169   -0.865361    0.577781
      5         35           0        1.139328    0.002130    0.003259
      6          9           0       -3.287664    0.009021    0.014442
 ---------------------------------------------------------------------
 Rotational constants (GHZ):         154.1214202           1.5452904           1.5439192
 Standard basis: 6-31G (6D, 7F)
 There are    48 symmetry adapted cartesian basis functions of A   symmetry.
 There are    48 symmetry adapted basis functions of A   symmetry.
    48 basis functions,   133 primitive gaussians,    48 cartesian basis functions
    27 alpha electrons       27 beta electrons
       nuclear repulsion energy       138.0567766848 Hartrees.
 NAtoms=    6 NActive=    6 NUniq=    6 SFac= 1.00D+00 NAtFMM=   60 NAOKFM=F Big=F
 Integral buffers will be    131072 words long.
 Raffenetti 1 integral format.
 Two-electron integral symmetry is turned on.
 One-electron integrals computed using PRISM.
 NBasis=    48 RedAO= T EigKep=  1.58D-03  NBF=    48
 NBsUse=    48 1.00D-06 EigRej= -1.00D+00 NBFU=    48
 Initial guess from the checkpoint file:  "ch3ftranstion.chk"
 B after Tr=     0.000000    0.000000   -0.000000
         Rot=    0.939734    0.341905    0.000009    0.000013 Ang=  39.99 deg.
 ExpMin= 1.43D-01 ExpMax= 5.74D+05 ExpMxC= 5.74D+03 IAcc=3 IRadAn=         5 AccDes= 0.00D+00
 Harris functional with IExCor=  205 and IRadAn=       5 diagonalized for initial guess.
[...]
                                   24.79247 (Kcal/Mol)
 Warning -- explicit consideration of   3 degrees of freedom as
           vibrations may cause significant error
 Vibrational temperatures:    287.99   343.89   528.09  1165.64  1461.78
          (Kelvin)           1899.12  2263.57  2294.12  4729.22  4972.89
                             5005.81
 
 Zero-point correction=                           0.039509 (Hartree/Particle)
 Thermal correction to Energy=                    0.043875
 Thermal correction to Enthalpy=                  0.044819
 Thermal correction to Gibbs Free Energy=         0.011333
 Sum of electronic and zero-point Energies=          -2708.710972
 Sum of electronic and thermal Energies=             -2708.706607
 Sum of electronic and thermal Enthalpies=           -2708.705663
 Sum of electronic and thermal Free Energies=        -2708.739148
 
                     E (Thermal)             CV                S
                      KCal/Mol        Cal/Mol-Kelvin    Cal/Mol-Kelvin
 Total                   27.532             12.366             70.476
 Electronic               0.000              0.000              0.000
 Translational            0.889              2.981             40.081
 Rotational               0.889              2.981             25.033
 Vibrational             25.754              6.405              5.362
 Vibration     1          0.638              1.840              2.132
 Vibration     2          0.657              1.781              1.810
 Vibration     3          0.740              1.540              1.092
                       Q            Log10(Q)             Ln(Q)
 Total Bot       0.612365D-05         -5.212989        -12.003352
 Total V=0       0.912053D+13         12.960020         29.841549
 Vib (Bot)       0.196736D-17        -17.706116        -40.769839
 Vib (Bot)    1  0.996096D+00         -0.001699         -0.003911
 Vib (Bot)    2  0.820734D+00         -0.085798         -0.197557
 Vib (Bot)    3  0.497015D+00         -0.303631         -0.699136
 Vib (V=0)       0.293017D+01          0.466893          1.075062
 Vib (V=0)    1  0.161454D+01          0.208050          0.479052
 Vib (V=0)    2  0.146104D+01          0.164663          0.379151
 Vib (V=0)    3  0.120500D+01          0.080987          0.186479
 Electronic      0.100000D+01          0.000000          0.000000
 Translational   0.471766D+08          7.673727         17.669409
 Rotational      0.659781D+05          4.819400         11.097078
 ***** Axes restored to original set *****
 -------------------------------------------------------------------
 Center     Atomic                   Forces (Hartrees/Bohr)
 Number     Number              X              Y              Z
 -------------------------------------------------------------------
      1        6          -0.000079547    0.000053564   -0.000049079
      2        1          -0.000004122    0.000004364   -0.000010839
      3        1           0.000004200    0.000000849   -0.000017808
      4        1           0.000074570   -0.000030683    0.000038872
      5       35           0.000006194   -0.000016256    0.000017216
      6        9          -0.000001295   -0.000011837    0.000021638
 -------------------------------------------------------------------
 Cartesian Forces:  Max     0.000079547 RMS     0.000034413
 FormGI is forming the generalized inverse of G from B-inverse, IUseBI=4.

 GradGradGradGradGradGradGradGradGradGradGradGradGradGradGradGradGradGrad
 Berny optimization.
 Internal  Forces:  Max     0.000078047 RMS     0.000022051
 Search for a saddle point.
 Step number   1 out of a maximum of    2
 All quantities printed in internal units (Hartrees-Bohrs-Radians)
 Swapping is turned off.
 Second derivative matrix not updated -- analytic derivatives used.
 ITU=  0
     Eigenvalues ---   -0.01748   0.01059   0.02273   0.03071   0.03456
     Eigenvalues ---    0.05311   0.09064   0.10912   0.12151   0.40405
     Eigenvalues ---    0.41471   0.41516
 Eigenvectors required to have negative eigenvalues:
                          A9        R5        A11       A10       A7
   1                   -0.61992   0.41108  -0.39554   0.26288   0.24469
                          A4        R4        D1        A8        R3
   1                    0.24319  -0.18454   0.17118   0.14600   0.08100
 Angle between quadratic step and forces=  65.06 degrees.
 Linear search not attempted -- option 19 set.
 Iteration  1 RMS(Cart)=  0.00030441 RMS(Int)=  0.00000013
 Iteration  2 RMS(Cart)=  0.00000010 RMS(Int)=  0.00000006
 Variable       Old X    -DE/DX   Delta X   Delta X   Delta X     New X
                                 (Linear)    (Quad)   (Total)
    R1        2.02082  -0.00000   0.00000   0.00002   0.00002   2.02084
    R2        2.02084  -0.00001   0.00000   0.00001   0.00001   2.02084
    R3        2.03080  -0.00008   0.00000  -0.00005  -0.00005   2.03075
    R4        4.05880   0.00001   0.00000  -0.00028  -0.00028   4.05852
    R5        4.60391  -0.00002   0.00000  -0.00001  -0.00001   4.60390
    A1        1.99318   0.00000   0.00000  -0.00014  -0.00014   1.99304
    A2        1.97906  -0.00001   0.00000  -0.00031  -0.00031   1.97875
    A3        1.77719  -0.00001   0.00000  -0.00005  -0.00005   1.77714
    A4        1.62088  -0.00001   0.00000   0.00006   0.00006   1.62094
    A5        1.97893  -0.00001   0.00000  -0.00018  -0.00018   1.97875
    A6        1.77703  -0.00000   0.00000   0.00011   0.00011   1.77714
    A7        1.62089  -0.00001   0.00000   0.00005   0.00005   1.62094
    A8        1.93537   0.00004   0.00000   0.00072   0.00072   1.93608
    A9        0.72721  -0.00002   0.00000  -0.00082  -0.00082   0.72639
   A10        3.39807  -0.00002   0.00000   0.00001   0.00001   3.39808
   A11        2.73463   0.00002   0.00000  -0.00012  -0.00012   2.73450
    D1       -2.30995   0.00002   0.00000   0.00069   0.00069  -2.30926
    D2        2.06201  -0.00000   0.00000  -0.00013  -0.00013   2.06188
    D3       -1.99707  -0.00000   0.00000   0.00013   0.00013  -1.99694
    D4       -2.11071   0.00000   0.00000   0.00006   0.00006  -2.11065
    D5        2.14317  -0.00000   0.00000  -0.00005  -0.00005   2.14312
    D6        2.11046   0.00000   0.00000   0.00019   0.00019   2.11065
    D7       -2.14294  -0.00000   0.00000  -0.00018  -0.00018  -2.14312
         Item               Value     Threshold  Converged?
 Maximum Force            0.000078     0.000450     YES
 RMS     Force            0.000022     0.000300     YES
 Maximum Displacement     0.001100     0.001800     YES
 RMS     Displacement     0.000304     0.001200     YES
 Predicted change in Energy=-3.191526D-08
 Optimization completed.
    -- Stationary point found.
                           ----------------------------
                           !   Optimized Parameters   !
                           ! (Angstroms and Degrees)  !
 --------------------------                            --------------------------
 ! Name  Definition              Value          Derivative Info.                !
 --------------------------------------------------------------------------------
 ! R1    R(1,2)                  1.0694         -DE/DX =    0.0                 !
 ! R2    R(1,3)                  1.0694         -DE/DX =    0.0                 !
 ! R3    R(1,4)                  1.0747         -DE/DX =   -0.0001              !
 ! R4    R(1,5)                  2.1478         -DE/DX =    0.0                 !
 ! R5    R(1,6)                  2.4363         -DE/DX =    0.0                 !
 ! A1    A(2,1,3)              114.201          -DE/DX =    0.0                 !
 ! A2    A(2,1,4)              113.3916         -DE/DX =    0.0                 !
 ! A3    A(2,1,5)              101.8257         -DE/DX =    0.0                 !
 ! A4    A(2,1,6)               92.8694         -DE/DX =    0.0                 !
 ! A5    A(3,1,4)              113.3843         -DE/DX =    0.0                 !
 ! A6    A(3,1,5)              101.8161         -DE/DX =    0.0                 !
 ! A7    A(3,1,6)               92.8701         -DE/DX =    0.0                 !
 ! A8    A(4,1,5)              110.8883         -DE/DX =    0.0                 !
 ! A9    A(4,1,6)               41.6662         -DE/DX =    0.0                 !
 ! A10   L(5,1,6,2,-1)         194.695          -DE/DX =    0.0                 !
 ! A11   L(5,1,6,2,-2)         156.6825         -DE/DX =    0.0                 !
 ! D1    D(2,1,4,3)           -132.3504         -DE/DX =    0.0                 !
 ! D2    D(2,1,5,3)            118.1446         -DE/DX =    0.0                 !
 ! D3    D(2,1,6,3)           -114.4237         -DE/DX =    0.0                 !
 ! D4    D(2,1,5,4)           -120.9347         -DE/DX =    0.0                 !
 ! D5    D(2,1,6,4)            122.7946         -DE/DX =    0.0                 !
 ! D6    D(3,1,5,4)            120.9207         -DE/DX =    0.0                 !
 ! D7    D(3,1,6,4)           -122.7816         -DE/DX =    0.0                 !
 --------------------------------------------------------------------------------
 GradGradGradGradGradGradGradGradGradGradGradGradGradGradGradGradGradGrad


 ----------------------------------------------------------------------

 Electric dipole moment (input orientation):
 (Debye = 10**-18 statcoulomb cm , SI units = C m)
                  (au)            (Debye)         (10**-30 SI)
   Tot        0.354266D+01      0.900453D+01      0.300359D+02
   x         -0.112255D+01     -0.285323D+01     -0.951734D+01
   y         -0.167364D+01     -0.425397D+01     -0.141897D+02
   z          0.291363D+01      0.740570D+01      0.247028D+02

 Dipole polarizability, Alpha (input orientation).
 (esu units = cm**3 , SI units = C**2 m**2 J**-1)
 Alpha(0;0):
               (au)            (10**-24 esu)      (10**-40 SI)
   iso        0.270249D+02      0.400467D+01      0.445580D+01
   aniso      0.380336D+02      0.563600D+01      0.627090D+01
   xx         0.276280D+02      0.409404D+01      0.455523D+01
   yx         0.917147D+01      0.135907D+01      0.151217D+01
   yy         0.206929D+02      0.306637D+01      0.341180D+01
   zx        -0.157592D+02     -0.233528D+01     -0.259834D+01
   zy        -0.106338D+02     -0.157577D+01     -0.175328D+01
   zz         0.327537D+02      0.485360D+01      0.540036D+01

 First dipole hyperpolarizability, Beta (input orientation).
 ||, _|_  parallel and perpendicular components, (z) with respect to z axis,
 vector components x,y,z.  Values do not include the 1/n! factor of 1/2.
 (esu units = statvolt**-1 cm**4 , SI units = C**3 m**3 J**-2)
 Beta(0;0,0):
               (au)            (10**-30 esu)      (10**-50 SI)
   || (z)     0.125799D+03      0.108680D+01      0.403356D+00
   _|_(z)     0.419329D+02      0.362267D+00      0.134452D+00
   x          0.654078D+02      0.565072D+00      0.209721D+00
   y         -0.356100D+03     -0.307643D+01     -0.114179D+01
   z          0.628993D+03      0.543401D+01      0.201678D+01
   ||         0.145151D+03      0.125399D+01      0.465405D+00
   xxx        0.583020D+02      0.503684D+00      0.186937D+00
   xxy        0.784207D+01      0.677494D-01      0.251445D-01
   yxy        0.889150D+01      0.768156D-01      0.285094D-01
   yyy       -0.294705D+02     -0.254602D+00     -0.944930D-01
   xxz       -0.141375D+02     -0.122137D+00     -0.453298D-01
   yxz        0.450711D+02      0.389379D+00      0.144514D+00
   yyz        0.557217D+02      0.481392D+00      0.178664D+00
   zxz       -0.453909D+02     -0.392142D+00     -0.145540D+00
   zyz       -0.970716D+02     -0.838623D+00     -0.311247D+00
   zzz        0.168080D+03      0.145208D+01      0.538926D+00

 ----------------------------------------------------------------------

 Dipole orientation:
     6          0.94707599         -0.83358861          0.95753918
     1          1.92146792         -2.60393181          0.96996983
     1          2.16230265          0.78098307          0.97008575
     1         -0.51748018         -0.72919964         -0.44543004
    35         -0.62236502         -0.72166021          4.69895845
     9          0.57585287         -0.80705525         -3.63130586

 Electric dipole moment (dipole orientation):
 (Debye = 10**-18 statcoulomb cm , SI units = C m)
                  (au)            (Debye)         (10**-30 SI)
   Tot        0.354266D+01      0.900453D+01      0.300359D+02
   x          0.000000D+00      0.000000D+00      0.000000D+00
   y          0.000000D+00      0.000000D+00      0.000000D+00
   z          0.354266D+01      0.900453D+01      0.300359D+02

 Dipole polarizability, Alpha (dipole orientation).
 (esu units = cm**3 , SI units = C**2 m**2 J**-1)
 Alpha(0;0):
               (au)            (10**-24 esu)      (10**-40 SI)
   iso        0.270249D+02      0.400467D+01      0.445580D+01
   aniso      0.380336D+02      0.563600D+01      0.627090D+01
   xx         0.177888D+02      0.263602D+01      0.293297D+01
   yx        -0.234955D+00     -0.348167D-01     -0.387388D-01
   yy         0.145155D+02      0.215097D+01      0.239328D+01
   zx        -0.111432D+02     -0.165126D+01     -0.183727D+01
   zy         0.794676D+00      0.117759D+00      0.131024D+00
   zz         0.487703D+02      0.722702D+01      0.804114D+01

 First dipole hyperpolarizability, Beta (dipole orientation).
 ||, _|_  parallel and perpendicular components, (z) with respect to z axis,
 vector components x,y,z.  Values do not include the 1/n! factor of 1/2.
 (esu units = statvolt**-1 cm**4 , SI units = C**3 m**3 J**-2)
 Beta(0;0,0):
               (au)            (10**-30 esu)      (10**-50 SI)
   || (z)     0.132963D+03      0.114870D+01      0.426328D+00
   _|_(z)     0.443210D+02      0.382899D+00      0.142109D+00
   x          0.290361D+03      0.250849D+01      0.931001D+00
   y         -0.207107D+02     -0.178924D+00     -0.664059D-01
   z          0.664815D+03      0.574349D+01      0.213164D+01
   ||         0.145151D+03      0.125399D+01      0.465405D+00
   xxx        0.241857D+02      0.208946D+00      0.775481D-01
   xxy        0.285432D+01      0.246591D-01      0.915198D-02
   yxy        0.317931D+02      0.274667D+00      0.101940D+00
   yyy       -0.684149D+01     -0.591052D-01     -0.219363D-01
   xxz       -0.407409D+02     -0.351969D+00     -0.130630D+00
   yxz        0.205244D+01      0.177315D-01      0.658086D-02
   yyz       -0.121291D+02     -0.104786D+00     -0.388902D-01
   zxz        0.408081D+02      0.352550D+00      0.130846D+00
   zyz       -0.291638D+01     -0.251953D-01     -0.935097D-02
   zzz        0.274475D+03      0.237125D+01      0.880066D+00

 ----------------------------------------------------------------------
 1\1\GINC-NODE12\Freq\RHF\6-31G\C1H3Br1F1(1-)\SC4101.25\05-Dec-2025\0\\
 #N Geom=AllCheck Guess=TCheck SCRF=Check GenChk RHF/6-31G Freq\\Title 
 Card Required\\-1,1\C,0.3492348465,-0.6676424301,0.3671475557\H,0.9113
 198612,-1.5352005344,0.0933622174\H,0.8845926883,0.0261603564,0.980012
 2545\H,-0.1523674058,-0.2047705124,-0.4629264372\Br,-1.0677414573,-1.4
 827895414,1.7602996364\F,0.9319103472,0.5080099018,-1.6856110768\\Vers
 ion=ES64L-G16RevB.01\State=1-A\HF=-2708.7504817\RMSD=9.821e-10\RMSF=3.
 441e-05\ZeroPoint=0.0395093\Thermal=0.0438747\Dipole=-1.1225462,-1.673
 6387,2.9136286\DipoleDeriv=0.8785689,0.5319612,-0.9156688,0.4621282,0.
 4169191,-0.4176498,-0.7926238,-0.4154964,0.8799325,-0.054084,0.0065078
 ,0.1391113,0.0014662,-0.0663134,0.0354693,0.117129,0.039957,0.0121559,
 -0.0501154,-0.1244253,0.066455,-0.1030619,0.0188929,-0.0141511,0.05958
 72,-0.0191865,-0.0770639,-0.0309816,-0.0696287,0.1173341,0.0364886,0.2
 401441,-0.1646568,-0.0695402,-0.1678549,0.4394781,-0.8377261,-0.227435
 4,0.3894694,-0.2362241,-0.6204609,0.2603269,0.4049915,0.2606193,-0.915
 4336,-0.9056617,-0.1169796,0.203299,-0.1607971,-0.9891818,0.3006615,0.
 2804563,0.3019615,-1.3390691\Polar=27.6279505,9.1714739,20.692885,-15.
 7592185,-10.6338137,32.7537314\PolarDeriv=1.6141753,2.0559156,-1.46160
 69,-3.3758283,-5.0929872,4.5612252,0.1393418,-0.0316246,3.411763,-3.77
 44648,-4.3198108,3.5795484,-0.0663118,-3.7587155,-1.9680602,4.4292926,
 4.8999803,-10.3866347,5.3085544,-2.1672966,1.1540172,-2.2246643,0.8453
 293,1.1161942,-2.4642679,2.5247943,-4.8095997,2.0538672,-1.3084657,-1.
 9727717,-0.6420584,0.7180425,-0.2523676,1.840455,-1.8051362,-2.3813437
 ,5.0587064,2.9922999,1.8711595,0.7574737,0.4332486,0.3572123,1.7720758
 ,3.2203462,5.1268412,0.3007904,0.9561651,0.8434223,1.7466873,1.6506336
 ,1.6870702,1.0758965,1.7048946,2.9388048,-1.5753911,0.6307616,-0.85407
 97,-1.1582207,2.1837578,-3.4693546,0.9348564,-0.2069628,1.896542,-0.29
 23152,-1.4594861,1.5434207,-1.6708658,-0.2993716,-1.5879809,0.1276353,
 1.5557733,-4.6213597,-11.6835833,-4.3134664,-0.6620188,7.3917378,2.156
 4003,-3.1633396,-0.3111122,-6.1702879,-7.141293,1.2868169,7.1104971,-2
 .3573136,0.5235662,1.2733069,1.0396828,-7.6425713,-5.8728522,15.249272
 3,1.2775383,0.8017859,-0.0474713,-1.3904982,-0.5257489,0.5980624,-0.07
 08939,0.6637348,1.5157465,0.4253054,-0.9788996,-1.6363061,0.1089825,0.
 4161042,1.0816557,0.1692919,-0.4826597,-0.7987388\HyperPolar=58.301964
 ,7.8420684,8.8914991,-29.4704649,-14.1374731,45.0711283,55.7216963,-45
 .3908683,-97.0715753,168.080193\Quadrupole=5.6407881,4.4263338,-10.067
 1219,-6.6799805,11.5828842,12.5334266\PG=C01 [X(C1H3Br1F1)]\NImag=1\\0
 .43088154,-0.13381531,0.61125404,0.22800793,0.12181752,0.47501518,-0.1
 4382711,0.15429679,0.03119167,0.14757578,0.14716278,-0.28243218,-0.076
 16328,-0.15272890,0.29628607,0.03456602,-0.07510841,-0.06870178,-0.045
 09090,0.07555039,0.07223696,-0.13519140,-0.10246255,-0.11278851,0.0140
 8355,0.01558332,0.01058463,0.13849336,-0.10172074,-0.19672012,-0.13392
 072,-0.01612055,-0.01361878,-0.01615422,0.11346285,0.20348150,-0.10491
 333,-0.13478085,-0.16302356,-0.00762665,-0.00393057,-0.00158720,0.1040
 8063,0.13889514,0.17411488,-0.12831306,0.08576706,-0.15308016,-0.00468
 341,0.00670325,-0.01476294,-0.00420413,0.00870684,-0.01278605,0.146273
 86,0.08176009,-0.11035131,0.09149153,0.01450348,-0.00644100,0.01949966
 ,-0.01601601,0.01132261,-0.01974007,-0.08357611,0.11547280,-0.14601477
 ,0.09160834,-0.22547875,0.00985113,-0.00846294,0.01130628,-0.00760524,
 0.00873395,-0.00694465,0.14965616,-0.09439518,0.23399686,-0.01944211,0
 .00435455,-0.00752763,-0.01422378,-0.01480421,0.01404771,-0.01414969,-
 0.00477255,0.01931345,-0.00534030,-0.00071511,0.00113292,0.05273890,0.
 00423399,-0.02153301,-0.00446762,0.00292221,0.00493148,-0.00356031,-0.
 01161061,-0.00407445,0.01700709,-0.01435511,-0.00211363,0.00123110,0.0
 2061664,0.02555365,-0.00731890,-0.00446536,-0.01649594,0.01117534,0.01
 153938,-0.01147919,0.00301089,0.00158013,-0.00255723,0.02515689,0.0016
 4144,-0.00330394,-0.03516966,-0.01795052,0.04556031,-0.00410786,-0.008
 14054,0.01419670,0.00107496,-0.00191624,0.00065547,0.00096831,0.000444
 14,0.00193194,-0.00373297,0.00404366,-0.00702019,0.00041698,-0.0018071
 1,0.00314543,0.00538058,0.00237920,-0.00021743,0.00124256,-0.00287303,
 0.00127442,-0.00022711,0.00104299,-0.00039075,0.00254926,-0.00324593,-
 0.00788947,0.00128472,-0.00467932,-0.00276404,0.00765494,0.00737609,0.
 00998728,-0.00432695,0.00092875,-0.00131514,0.00049940,0.00146702,-0.0
 0177508,0.00271759,0.00086573,-0.00000223,0.00581609,0.00150261,-0.009
 57581,0.00820320,0.00774025,-0.01172402,-0.01290934,-0.01250436,0.0243
 9228\\0.00007955,-0.00005356,0.00004908,0.00000412,-0.00000436,0.00001
 084,-0.00000420,-0.00000085,0.00001781,-0.00007457,0.00003068,-0.00003
 887,-0.00000619,0.00001626,-0.00001722,0.00000129,0.00001184,-0.000021
 64\\\@


 THE HURRIEDER I GO, THE BEHINDER I GET.
 Job cpu time:       0 days  0 hours  0 minutes  4.9 seconds.
 Elapsed time:       0 days  0 hours  0 minutes  5.0 seconds.
 File lengths (MBytes):  RWF=      6 Int=      0 D2E=      0 Chk=      2 Scr=      1
 Normal termination of Gaussian 16 at Fri Dec  5 10:34:46 2025.
