 Entering Gaussian System, Link 0=g16
 Input=/home/iiit/sc4101.25/Freactant.com
 Output=/home/iiit/sc4101.25/Freactant.log
 Initial command:
 /global/g16/l1.exe "/tmp/Gau-48836.inp" -scrdir="/tmp/"
 Entering Link 1 = /global/g16/l1.exe PID=     48838.
  
 Copyright (c) 1988-2017, Gaussian, Inc.  All Rights Reserved.
  
 This is part of the Gaussian(R) 16 program.  It is based on
 the Gaussian(R) 09 system (copyright 2009, Gaussian, Inc.),
 the Gaussian(R) 03 system (copyright 2003, Gaussian, Inc.),
 the Gaussian(R) 98 system (copyright 1998, Gaussian, Inc.),
 the Gaussian(R) 94 system (copyright 1995, Gaussian, Inc.),
 the Gaussian 92(TM) system (copyright 1992, Gaussian, Inc.),
 the Gaussian 90(TM) system (copyright 1990, Gaussian, Inc.),
 the Gaussian 88(TM) system (copyright 1988, Gaussian, Inc.),
 the Gaussian 86(TM) system (copyright 1986, Carnegie Mellon
 University), and the Gaussian 82(TM) system (copyright 1983,
 Carnegie Mellon University). Gaussian is a federally registered
 trademark of Gaussian, Inc.
  
 This software contains proprietary and confidential information,
 including trade secrets, belonging to Gaussian, Inc.
  
 This software is provided under written license and may be
 used, copied, transmitted, or stored only in accord with that
 written license.
  
 The following legend is applicable only to US Government
 contracts under FAR:
  
                    RESTRICTED RIGHTS LEGEND
  
 Use, reproduction and disclosure by the US Government is
 subject to restrictions as set forth in subparagraphs (a)
 and (c) of the Commercial Computer Software - Restricted
 Rights clause in FAR 52.227-19.
  
 Gaussian, Inc.
 340 Quinnipiac St., Bldg. 40, Wallingford CT 06492
  
  
 ---------------------------------------------------------------
 Warning -- This program may not be used in any manner that
 competes with the business of Gaussian, Inc. or will provide
 assistance to any competitor of Gaussian, Inc.  The licensee
 of this program is prohibited from giving any competitor of
 Gaussian, Inc. access to this program.  By using this program,
 the user acknowledges that Gaussian, Inc. is engaged in the
 business of creating and licensing software in the field of
 computational chemistry and represents and warrants to the
 licensee that it is not a competitor of Gaussian, Inc. and that
 it will not use this program in any manner prohibited above.
 ---------------------------------------------------------------
  

 Cite this work as:
 Gaussian 16, Revision B.01,
 M. J. Frisch, G. W. Trucks, H. B. Schlegel, G. E. Scuseria, 
 M. A. Robb, J. R. Cheeseman, G. Scalmani, V. Barone, 
 G. A. Petersson, H. Nakatsuji, X. Li, M. Caricato, A. V. Marenich, 
 J. Bloino, B. G. Janesko, R. Gomperts, B. Mennucci, H. P. Hratchian, 
 J. V. Ortiz, A. F. Izmaylov, J. L. Sonnenberg, D. Williams-Young, 
 F. Ding, F. Lipparini, F. Egidi, J. Goings, B. Peng, A. Petrone, 
 T. Henderson, D. Ranasinghe, V. G. Zakrzewski, J. Gao, N. Rega, 
 G. Zheng, W. Liang, M. Hada, M. Ehara, K. Toyota, R. Fukuda, 
 J. Hasegawa, M. Ishida, T. Nakajima, Y. Honda, O. Kitao, H. Nakai, 
 T. Vreven, K. Throssell, J. A. Montgomery, Jr., J. E. Peralta, 
 F. Ogliaro, M. J. Bearpark, J. J. Heyd, E. N. Brothers, K. N. Kudin, 
 V. N. Staroverov, T. A. Keith, R. Kobayashi, J. Normand, 
 K. Raghavachari, A. P. Rendell, J. C. Burant, S. S. Iyengar, 
 J. Tomasi, M. Cossi, J. M. Millam, M. Klene, C. Adamo, R. Cammi, 
 J. W. Ochterski, R. L. Martin, K. Morokuma, O. Farkas, 
 J. B. Foresman, and D. J. Fox, Gaussian, Inc., Wallingford CT, 2016.
 
 ******************************************
 Gaussian 16:  ES64L-G16RevB.01 20-Dec-2017
                 5-Dec-2025 
 ******************************************
 %chk=Freactant.chk
 -------------------------------------
 # opt freq hf/6-31g geom=connectivity
 -------------------------------------
 1/18=20,19=15,38=1,57=2/1,3;
 2/9=110,12=2,17=6,18=5,40=1/2;
 3/5=1,6=6,11=9,25=1,30=1,71=1/1,2,3;
 4//1;
 5/5=2,38=5/2;
 6/7=2,8=2,9=2,10=2,28=1/1;
 7//1,2,3,16;
 1/18=20,19=15/3(2);
 2/9=110/2;
 99//99;
 2/9=110/2;
 3/5=1,6=6,11=9,25=1,30=1,71=1/1,2,3;
 4/5=5,16=3,69=1/1;
 5/5=2,38=5/2;
 7//1,2,3,16;
 1/18=20,19=15/3(-5);
 2/9=110/2;
 6/7=2,8=2,9=2,10=2,19=2,28=1/1;
 99/9=1/99;
 -------------------
 Title Card Required
 -------------------
 Symbolic Z-matrix:
 Charge = -1 Multiplicity = 1
 C                    -2.15314   1.24346   0. 
 H                    -1.68885   0.30807  -0.23322 
 H                    -1.68877   1.91305   0.69347 
 H                    -3.08181   1.50925  -0.46026 
 F                     0.71293   3.7474   -4.33691 
 Br                   -3.10187   0.4146    1.43562 
 

 GradGradGradGradGradGradGradGradGradGradGradGradGradGradGradGradGradGrad
 Berny optimization.
 Initialization pass.
                           ----------------------------
                           !    Initial Parameters    !
                           ! (Angstroms and Degrees)  !
 --------------------------                            --------------------------
 ! Name  Definition              Value          Derivative Info.                !
 --------------------------------------------------------------------------------
 ! R1    R(1,2)                  1.07           estimate D2E/DX2                !
 ! R2    R(1,3)                  1.07           estimate D2E/DX2                !
 ! R3    R(1,4)                  1.07           estimate D2E/DX2                !
 ! R4    R(1,5)                  5.77           estimate D2E/DX2                !
 ! R5    R(1,6)                  1.91           estimate D2E/DX2                !
 ! A1    A(2,1,3)              120.0001         estimate D2E/DX2                !
 ! A2    A(2,1,4)              119.9997         estimate D2E/DX2                !
 ! A3    A(2,1,5)               90.0001         estimate D2E/DX2                !
 ! A4    A(2,1,6)               90.0001         estimate D2E/DX2                !
 ! A5    A(3,1,4)              120.0002         estimate D2E/DX2                !
 ! A6    A(3,1,5)               89.9998         estimate D2E/DX2                !
 ! A7    A(3,1,6)               89.9998         estimate D2E/DX2                !
 ! A8    A(4,1,5)               90.0001         estimate D2E/DX2                !
 ! A9    A(4,1,6)               90.0001         estimate D2E/DX2                !
 ! A10   L(5,1,6,2,-1)         180.0002         estimate D2E/DX2                !
 ! A11   L(5,1,6,2,-2)         179.9997         estimate D2E/DX2                !
 ! D1    D(2,1,4,3)            180.0            estimate D2E/DX2                !
 ! D2    D(2,1,5,3)           -120.0001         estimate D2E/DX2                !
 ! D3    D(2,1,6,3)            120.0001         estimate D2E/DX2                !
 ! D4    D(2,1,5,4)            119.9997         estimate D2E/DX2                !
 ! D5    D(2,1,6,4)           -119.9997         estimate D2E/DX2                !
 ! D6    D(3,1,5,4)           -120.0002         estimate D2E/DX2                !
 ! D7    D(3,1,6,4)            120.0002         estimate D2E/DX2                !
 --------------------------------------------------------------------------------
 Trust Radius=3.00D-01 FncErr=1.00D-07 GrdErr=1.00D-07 EigMax=2.50D+02 EigMin=1.00D-04
 Number of steps in this run=     33 maximum allowed number of steps=    100.
 GradGradGradGradGradGradGradGradGradGradGradGradGradGradGradGradGradGrad

                          Input orientation:                          
 ---------------------------------------------------------------------
 Center     Atomic      Atomic             Coordinates (Angstroms)
 Number     Number       Type             X           Y           Z
 ---------------------------------------------------------------------
      1          6           0       -2.153141    1.243455    0.000000
      2          1           0       -1.688852    0.308071   -0.233220
      3          1           0       -1.688768    1.913046    0.693473
      4          1           0       -3.081807    1.509245   -0.460256
      5          9           0        0.712929    3.747402   -4.336910
      6         35           0       -3.101871    0.414601    1.435623
 ---------------------------------------------------------------------
                    Distance matrix (angstroms):
                    1          2          3          4          5
     1  C    0.000000
     2  H    1.070000   0.000000
     3  H    1.070000   1.853295   0.000000
     4  H    1.070000   1.853291   1.853296   0.000000
     5  F    5.770000   5.868375   5.868370   5.868374   0.000000
     6  Br   1.910000   2.189294   2.189289   2.189293   7.680000
                    6
     6  Br   0.000000
 This structure is nearly, but not quite of a higher symmetry.
 Consider Symm=Loose if the higher symmetry is desired.
 Stoichiometry    CH3BrF(1-)
 Framework group  C1[X(CH3BrF)]
 Deg. of freedom    12
 Full point group                 C1      NOp   1
 Largest Abelian subgroup         C1      NOp   1
 Largest concise Abelian subgroup C1      NOp   1
                         Standard orientation:                         
 ---------------------------------------------------------------------
 Center     Atomic      Atomic             Coordinates (Angstroms)
 Number     Number       Type             X           Y           Z
 ---------------------------------------------------------------------
      1          6           0        0.279338    0.010746    0.033201
      2          1           0        0.164004   -0.207516    1.074335
      3          1           0        0.280275    1.026349   -0.303620
      4          1           0        0.393735   -0.786599   -0.671109
      5          9           0        6.004834    0.231152    0.713654
      6         35           0       -1.615930   -0.062202   -0.192049
 ---------------------------------------------------------------------
 Rotational constants (GHZ):         145.9968240           0.5570889           0.5570889
 Standard basis: 6-31G (6D, 7F)
 There are    48 symmetry adapted cartesian basis functions of A   symmetry.
 There are    48 symmetry adapted basis functions of A   symmetry.
    48 basis functions,   133 primitive gaussians,    48 cartesian basis functions
    27 alpha electrons       27 beta electrons
       nuclear repulsion energy       122.4118332343 Hartrees.
 NAtoms=    6 NActive=    6 NUniq=    6 SFac= 1.00D+00 NAtFMM=   60 NAOKFM=F Big=F
 Integral buffers will be    131072 words long.
 Raffenetti 1 integral format.
 Two-electron integral symmetry is turned on.
 One-electron integrals computed using PRISM.
 NBasis=    48 RedAO= T EigKep=  1.55D-03  NBF=    48
 NBsUse=    48 1.00D-06 EigRej= -1.00D+00 NBFU=    48
 ExpMin= 1.43D-01 ExpMax= 5.74D+05 ExpMxC= 5.74D+03 IAcc=3 IRadAn=         5 AccDes= 0.00D+00
 Harris functional with IExCor=  205 and IRadAn=       5 diagonalized for initial guess.
 HarFok:  IExCor=  205 AccDes= 0.00D+00 IRadAn=         5 IDoV= 1 UseB2=F ITyADJ=14
 ICtDFT=  3500011 ScaDFX=  1.000000  1.000000  1.000000  1.000000
 FoFCou: FMM=F IPFlag=           0 FMFlag=      100000 FMFlg1=           0
         NFxFlg=           0 DoJE=T BraDBF=F KetDBF=T FulRan=T
         wScrn=  0.000000 ICntrl=       500 IOpCl=  0 I1Cent=   200000004 NGrid=           0
         NMat0=    1 NMatS0=      1 NMatT0=    0 NMatD0=    1 NMtDS0=    0 NMtDT0=    0
 Petite list used in FoFCou.
 Keep R1 ints in memory in canonical form, NReq=1688217.
 Requested convergence on RMS density matrix=1.00D-08 within 128 cycles.
 Requested convergence on MAX density matrix=1.00D-06.
 Requested convergence on             energy=1.00D-06.
 No special actions if energy rises.
 SCF Done:  E(RHF) =  -2708.65875220     A.U. after   11 cycles
            NFock= 11  Conv=0.15D-08     -V/T= 2.0023

 **********************************************************************

            Population analysis using the SCF Density.

 **********************************************************************

 Orbital symmetries:
       Occupied  (A) (A) (A) (A) (A) (A) (A) (A) (A) (A) (A) (A)
                 (A) (A) (A) (A) (A) (A) (A) (A) (A) (A) (A) (A)
                 (A) (A) (A)
       Virtual   (A) (A) (A) (A) (A) (A) (A) (A) (A) (A) (A) (A)
                 (A) (A) (A) (A) (A) (A) (A) (A) (A)
 The electronic state is 1-A.
 Alpha  occ. eigenvalues -- -489.85569 -64.29331 -58.45526 -58.45334 -58.45334
 Alpha  occ. eigenvalues --  -25.69903 -11.21285  -9.59235  -7.35715  -7.34777
 Alpha  occ. eigenvalues --   -7.34777  -3.09749  -3.09410  -3.09410  -3.08385
 Alpha  occ. eigenvalues --   -3.08385  -1.02547  -0.97209  -0.79645  -0.57475
 Alpha  occ. eigenvalues --   -0.57475  -0.38335  -0.32036  -0.32036  -0.08330
 Alpha  occ. eigenvalues --   -0.08324  -0.08324
 Alpha virt. eigenvalues --    0.23843   0.30535   0.37107   0.37107   0.74966
 Alpha virt. eigenvalues --    0.79422   0.79422   0.80918   0.80918   0.85318
 Alpha virt. eigenvalues --    0.88758   1.26707   1.29407   1.29407   1.45300
 Alpha virt. eigenvalues --    1.98698   1.98710   1.98710   2.13835   7.33531
 Alpha virt. eigenvalues --   41.36067
          Condensed to atoms (all electrons):
               1          2          3          4          5          6
     1  C    5.428794   0.362021   0.362021   0.362021   0.000000   0.110008
     2  H    0.362021   0.495296  -0.009089  -0.009089   0.000000  -0.088465
     3  H    0.362021  -0.009089   0.495296  -0.009089   0.000000  -0.088465
     4  H    0.362021  -0.009089  -0.009089   0.495296   0.000000  -0.088465
     5  F    0.000000   0.000000   0.000000   0.000000  10.000000   0.000000
     6  Br   0.110008  -0.088465  -0.088465  -0.088465   0.000000  35.278502
 Mulliken charges:
               1
     1  C   -0.624863
     2  H    0.249326
     3  H    0.249326
     4  H    0.249326
     5  F   -1.000000
     6  Br  -0.123115
 Sum of Mulliken charges =  -1.00000
 Mulliken charges with hydrogens summed into heavy atoms:
               1
     1  C    0.123115
     5  F   -1.000000
     6  Br  -0.123115
 Electronic spatial extent (au):  <R**2>=           1728.5054
 Charge=             -1.0000 electrons
 Dipole moment (field-independent basis, Debye):
    X=            -26.0919    Y=             -1.0044    Z=             -3.1009  Tot=             26.2947
 Quadrupole moment (field-independent basis, Debye-Ang):
   XX=           -210.6357   YY=            -31.5846   ZZ=            -33.8517
   XY=             -6.9027   XZ=            -21.3112   YZ=             -0.8204
 Traceless Quadrupole moment (field-independent basis, Debye-Ang):
   XX=           -118.6117   YY=             60.4394   ZZ=             58.1723
   XY=             -6.9027   XZ=            -21.3112   YZ=             -0.8204
 Octapole moment (field-independent basis, Debye-Ang**2):
  XXX=          -1053.5499  YYY=             -0.0001  ZZZ=             -2.6297  XYY=             -6.4213
  XXY=            -40.1894  XXZ=           -124.0255  XZZ=            -19.7154  YZZ=             -1.3722
  YYZ=             -1.6619  XYZ=             -4.6443
 Hexadecapole moment (field-independent basis, Debye-Ang**3):
 XXXX=          -7825.3107 YYYY=            -40.2976 ZZZZ=            -61.2557 XXXY=           -269.6966
 XXXZ=           -832.6433 YYYX=            -30.3797 YYYZ=             -3.6186 ZZZX=           -103.2357
 ZZZY=             -3.9911 XXYY=           -282.6855 XXZZ=           -364.7011 YYZZ=            -16.8737
 XXYZ=            -29.6525 YYXZ=            -32.1158 ZZXY=            -13.4561
 N-N= 1.224118332343D+02 E-N=-6.727059625950D+03  KE= 2.702395676873D+03
 Calling FoFJK, ICntrl=      2127 FMM=F ISym2X=0 I1Cent= 0 IOpClX= 0 NMat=1 NMatS=1 NMatT=0.
 ***** Axes restored to original set *****
 -------------------------------------------------------------------
 Center     Atomic                   Forces (Hartrees/Bohr)
 Number     Number              X              Y              Z
 -------------------------------------------------------------------
      1        6          -0.019017562   -0.016615082    0.028776749
      2        1           0.023853641    0.024973495   -0.037541442
      3        1           0.023853502    0.020026113   -0.040399081
      4        1           0.028147321    0.021270975   -0.036841741
      5        9          -0.000372416   -0.000325363    0.000563534
      6       35          -0.056464486   -0.049330138    0.085441981
 -------------------------------------------------------------------
 Cartesian Forces:  Max     0.085441981 RMS     0.035114588

 GradGradGradGradGradGradGradGradGradGradGradGradGradGradGradGradGradGrad
 Berny optimization.
 FormGI is forming the generalized inverse of G from B-inverse, IUseBI=4.
 Internal  Forces:  Max     0.113675119 RMS     0.028170511
 Search for a local minimum.
 Step number   1 out of a maximum of   33
 All quantities printed in internal units (Hartrees-Bohrs-Radians)
 Mixed Optimization -- RFO/linear search
 Second derivative matrix not updated -- first step.
 ITU=  0
     Eigenvalues ---    0.00183   0.05487   0.05487   0.05666   0.06989
     Eigenvalues ---    0.06989   0.16000   0.16000   0.17771   0.37230
     Eigenvalues ---    0.37230   0.37230
 RFO step:  Lambda=-8.61442236D-02 EMin= 1.83182719D-03
 Linear search not attempted -- first point.
 Maximum step size (   0.300) exceeded in Quadratic search.
    -- Step size scaled by   0.573
 Iteration  1 RMS(Cart)=  0.05959036 RMS(Int)=  0.01213348
 Iteration  2 RMS(Cart)=  0.01120749 RMS(Int)=  0.00296370
 Iteration  3 RMS(Cart)=  0.00002857 RMS(Int)=  0.00296339
 Iteration  4 RMS(Cart)=  0.00000011 RMS(Int)=  0.00296339
 Variable       Old X    -DE/DX   Delta X   Delta X   Delta X     New X
                                 (Linear)    (Quad)   (Total)
    R1        2.02201  -0.00330   0.00000  -0.00412  -0.00412   2.01788
    R2        2.02201  -0.00330   0.00000  -0.00412  -0.00412   2.01788
    R3        2.02201  -0.00330   0.00000  -0.00412  -0.00412   2.01788
    R4       10.90372  -0.00075   0.00000  -0.00488  -0.00488  10.89884
    R5        3.60938   0.11368   0.00000   0.24685   0.24685   3.85622
    A1        2.09440  -0.00000   0.00000  -0.00000  -0.00820   2.08620
    A2        2.09439   0.00000   0.00000   0.00000  -0.00813   2.08626
    A3        1.57080  -0.01715   0.00000  -0.06883  -0.06875   1.50205
    A4        1.57080   0.01715   0.00000   0.06883   0.06875   1.63955
    A5        2.09440  -0.00000   0.00000  -0.00000  -0.00813   2.08627
    A6        1.57079  -0.01715   0.00000  -0.06883  -0.06875   1.50204
    A7        1.57079   0.01716   0.00000   0.06883   0.06875   1.63955
    A8        1.57080  -0.01715   0.00000  -0.06883  -0.06874   1.50205
    A9        1.57080   0.01715   0.00000   0.06883   0.06874   1.63954
   A10        3.14160  -0.00000   0.00000  -0.00000  -0.00000   3.14160
   A11        3.14159   0.00000   0.00000   0.00000   0.00000   3.14159
    D1        3.14159   0.05943   0.00000   0.23842   0.23686  -2.90473
    D2       -2.09440   0.00000   0.00000   0.00000   0.00005  -2.09435
    D3        2.09440  -0.00000   0.00000  -0.00000  -0.00005   2.09435
    D4        2.09439   0.00000   0.00000   0.00000   0.00002   2.09441
    D5       -2.09439  -0.00000   0.00000  -0.00000  -0.00002  -2.09441
    D6       -2.09440   0.00000   0.00000   0.00000  -0.00002  -2.09442
    D7        2.09440  -0.00000   0.00000  -0.00000   0.00002   2.09442
         Item               Value     Threshold  Converged?
 Maximum Force            0.113675     0.000450     NO 
 RMS     Force            0.028171     0.000300     NO 
 Maximum Displacement     0.206090     0.001800     NO 
 RMS     Displacement     0.070511     0.001200     NO 
 Predicted change in Energy=-4.140823D-02
 GradGradGradGradGradGradGradGradGradGradGradGradGradGradGradGradGradGrad

                          Input orientation:                          
 ---------------------------------------------------------------------
 Center     Atomic      Atomic             Coordinates (Angstroms)
 Number     Number       Type             X           Y           Z
 ---------------------------------------------------------------------
      1          6           0       -2.160338    1.237176    0.010877
      2          1           0       -1.661633    0.337743   -0.276439
      3          1           0       -1.661549    1.935641    0.646166
      4          1           0       -3.048487    1.533628   -0.502487
      5          9           0        0.704453    3.739999   -4.324089
      6         35           0       -3.173955    0.351634    1.544681
 ---------------------------------------------------------------------
                    Distance matrix (angstroms):
                    1          2          3          4          5
     1  C    0.000000
     2  H    1.067818   0.000000
     3  H    1.067818   1.845122   0.000000
     4  H    1.067818   1.845157   1.845160   0.000000
     5  F    5.767416   5.792856   5.792850   5.792864   0.000000
     6  Br   2.040626   2.367232   2.367230   2.367224   7.808042
                    6
     6  Br   0.000000
 Stoichiometry    CH3BrF(1-)
 Framework group  C1[X(CH3BrF)]
 Deg. of freedom    12
 Full point group                 C1      NOp   1
 Largest Abelian subgroup         C1      NOp   1
 Largest concise Abelian subgroup C1      NOp   1
                         Standard orientation:                         
 ---------------------------------------------------------------------
 Center     Atomic      Atomic             Coordinates (Angstroms)
 Number     Number       Type             X           Y           Z
 ---------------------------------------------------------------------
      1          6           0        0.364059   -0.000004    0.000005
      2          1           0        0.437415    0.489432    0.946212
      3          1           0        0.437419    0.574757   -0.896936
      4          1           0        0.437406   -1.064160   -0.049254
      5          9           0        6.131475   -0.000000   -0.000002
      6         35           0       -1.676568   -0.000000   -0.000001
 ---------------------------------------------------------------------
 Rotational constants (GHZ):         147.2890306           0.5381812           0.5381811
 Standard basis: 6-31G (6D, 7F)
 There are    48 symmetry adapted cartesian basis functions of A   symmetry.
 There are    48 symmetry adapted basis functions of A   symmetry.
    48 basis functions,   133 primitive gaussians,    48 cartesian basis functions
    27 alpha electrons       27 beta electrons
       nuclear repulsion energy       116.4797474426 Hartrees.
 NAtoms=    6 NActive=    6 NUniq=    6 SFac= 1.00D+00 NAtFMM=   60 NAOKFM=F Big=F
 Integral buffers will be    131072 words long.
 Raffenetti 1 integral format.
 Two-electron integral symmetry is turned on.
 One-electron integrals computed using PRISM.
 NBasis=    48 RedAO= T EigKep=  1.57D-03  NBF=    48
 NBsUse=    48 1.00D-06 EigRej= -1.00D+00 NBFU=    48
 Initial guess from the checkpoint file:  "Freactant.chk"
 B after Tr=     0.000000    0.000000    0.000000
         Rot=    0.940826    0.333150   -0.049303    0.037758 Ang=  39.62 deg.
 ExpMin= 1.43D-01 ExpMax= 5.74D+05 ExpMxC= 5.74D+03 IAcc=3 IRadAn=         5 AccDes= 0.00D+00
 Harris functional with IExCor=  205 and IRadAn=       5 diagonalized for initial guess.
 HarFok:  IExCor=  205 AccDes= 0.00D+00 IRadAn=         5 IDoV= 1 UseB2=F ITyADJ=14
 ICtDFT=  3500011 ScaDFX=  1.000000  1.000000  1.000000  1.000000
 FoFCou: FMM=F IPFlag=           0 FMFlag=      100000 FMFlg1=           0
         NFxFlg=           0 DoJE=T BraDBF=F KetDBF=T FulRan=T
         wScrn=  0.000000 ICntrl=       500 IOpCl=  0 I1Cent=   200000004 NGrid=           0
         NMat0=    1 NMatS0=      1 NMatT0=    0 NMatD0=    1 NMtDS0=    0 NMtDT0=    0
 Petite list used in FoFCou.
 Keep R1 ints in memory in canonical form, NReq=1687895.
 Requested convergence on RMS density matrix=1.00D-08 within 128 cycles.
 Requested convergence on MAX density matrix=1.00D-06.
 Requested convergence on             energy=1.00D-06.
 No special actions if energy rises.
 SCF Done:  E(RHF) =  -2708.69300417     A.U. after   11 cycles
            NFock= 11  Conv=0.21D-08     -V/T= 2.0024
 Calling FoFJK, ICntrl=      2127 FMM=F ISym2X=0 I1Cent= 0 IOpClX= 0 NMat=1 NMatS=1 NMatT=0.
 ***** Axes restored to original set *****
 -------------------------------------------------------------------
 Center     Atomic                   Forces (Hartrees/Bohr)
 Number     Number              X              Y              Z
 -------------------------------------------------------------------
      1        6          -0.027179564   -0.023751307    0.041137299
      2        1           0.013664508    0.015602896   -0.021965589
      3        1           0.013664174    0.011221994   -0.024495672
      4        1           0.017474328    0.012323416   -0.021344213
      5        9          -0.000531460   -0.000464319    0.000804211
      6       35          -0.017091986   -0.014932680    0.025863964
 -------------------------------------------------------------------
 Cartesian Forces:  Max     0.041137299 RMS     0.019605090

 GradGradGradGradGradGradGradGradGradGradGradGradGradGradGradGradGradGrad
 Berny optimization.
 Using GEDIIS/GDIIS optimizer.
 FormGI is forming the generalized inverse of G from B-inverse, IUseBI=4.
 Internal  Forces:  Max     0.034987729 RMS     0.011557328
 Search for a local minimum.
 Step number   2 out of a maximum of   33
 All quantities printed in internal units (Hartrees-Bohrs-Radians)
 Mixed Optimization -- RFO/linear search
 Update second derivatives using D2CorX and points    1    2
 DE= -3.43D-02 DEPred=-4.14D-02 R= 8.27D-01
 TightC=F SS=  1.41D+00  RLast= 3.82D-01 DXNew= 5.0454D-01 1.1450D+00
 Trust test= 8.27D-01 RLast= 3.82D-01 DXMaxT set to 5.05D-01
 ITU=  1  0
 Use linear search instead of GDIIS.
     Eigenvalues ---    0.00183   0.05379   0.05397   0.06515   0.06930
     Eigenvalues ---    0.06948   0.15999   0.16000   0.28412   0.37230
     Eigenvalues ---    0.37230   0.37274
 RFO step:  Lambda=-2.29754590D-02 EMin= 1.83158179D-03
 Quartic linear search produced a step of  1.23423.
 Iteration  1 RMS(Cart)=  0.07388196 RMS(Int)=  0.07854252
 Iteration  2 RMS(Cart)=  0.03610787 RMS(Int)=  0.03119436
 Iteration  3 RMS(Cart)=  0.01030791 RMS(Int)=  0.02699655
 Iteration  4 RMS(Cart)=  0.00053516 RMS(Int)=  0.02698608
 Iteration  5 RMS(Cart)=  0.00002911 RMS(Int)=  0.02698605
 Iteration  6 RMS(Cart)=  0.00000159 RMS(Int)=  0.02698605
 Iteration  7 RMS(Cart)=  0.00000009 RMS(Int)=  0.02698605
 Variable       Old X    -DE/DX   Delta X   Delta X   Delta X     New X
                                 (Linear)    (Quad)   (Total)
    R1        2.01788  -0.00085  -0.00509   0.00425  -0.00084   2.01705
    R2        2.01788  -0.00085  -0.00509   0.00425  -0.00084   2.01705
    R3        2.01788  -0.00085  -0.00509   0.00425  -0.00084   2.01704
    R4       10.89884  -0.00107  -0.00603  -0.07659  -0.08262  10.81622
    R5        3.85622   0.03441   0.30467  -0.18283   0.12184   3.97806
    A1        2.08620  -0.00137  -0.01012  -0.00251  -0.08666   1.99954
    A2        2.08626  -0.00297  -0.01003  -0.03580  -0.10862   1.97764
    A3        1.50205  -0.01025  -0.08486  -0.10435  -0.19009   1.31195
    A4        1.63955   0.01025   0.08486   0.10435   0.19009   1.82964
    A5        2.08627  -0.00297  -0.01004  -0.03580  -0.10862   1.97764
    A6        1.50204  -0.01025  -0.08486  -0.10435  -0.19009   1.31195
    A7        1.63955   0.01025   0.08486   0.10435   0.19009   1.82964
    A8        1.50205  -0.01044  -0.08485  -0.10491  -0.18726   1.31479
    A9        1.63954   0.01044   0.08485   0.10492   0.18727   1.82681
   A10        3.14160  -0.00000  -0.00000  -0.00000  -0.00000   3.14159
   A11        3.14159  -0.00000   0.00000  -0.00001  -0.00001   3.14158
    D1       -2.90473   0.03499   0.29234   0.35321   0.58811  -2.31662
    D2       -2.09435  -0.00106   0.00006  -0.02236  -0.01744  -2.11179
    D3        2.09435   0.00106  -0.00006   0.02236   0.01743   2.11178
    D4        2.09441  -0.00053   0.00003  -0.01118  -0.00872   2.08570
    D5       -2.09441   0.00053  -0.00003   0.01118   0.00871  -2.08570
    D6       -2.09442   0.00053  -0.00003   0.01118   0.00872  -2.08570
    D7        2.09442  -0.00053   0.00003  -0.01118  -0.00872   2.08570
         Item               Value     Threshold  Converged?
 Maximum Force            0.034988     0.000450     NO 
 RMS     Force            0.011557     0.000300     NO 
 Maximum Displacement     0.209961     0.001800     NO 
 RMS     Displacement     0.117156     0.001200     NO 
 Predicted change in Energy=-9.908123D-03
 GradGradGradGradGradGradGradGradGradGradGradGradGradGradGradGradGradGrad

                          Input orientation:                          
 ---------------------------------------------------------------------
 Center     Atomic      Atomic             Coordinates (Angstroms)
 Number     Number       Type             X           Y           Z
 ---------------------------------------------------------------------
      1          6           0       -2.198259    1.201129    0.073312
      2          1           0       -1.621586    0.415830   -0.362627
      3          1           0       -1.621505    1.971244    0.535446
      4          1           0       -2.960369    1.574831   -0.573852
      5          9           0        0.643679    3.685304   -4.229358
      6         35           0       -3.243469    0.287484    1.655787
 ---------------------------------------------------------------------
                    Distance matrix (angstroms):
                    1          2          3          4          5
     1  C    0.000000
     2  H    1.067375   0.000000
     3  H    1.067375   1.796064   0.000000
     4  H    1.067372   1.783323   1.783323   0.000000
     5  F    5.723697   5.547296   5.547290   5.550314   0.000000
     6  Br   2.105099   2.592485   2.592485   2.590116   7.828796
                    6
     6  Br   0.000000
 Stoichiometry    CH3BrF(1-)
 Framework group  C1[X(CH3BrF)]
 Deg. of freedom    12
 Full point group                 C1      NOp   1
 Largest Abelian subgroup         C1      NOp   1
 Largest concise Abelian subgroup C1      NOp   1
                         Standard orientation:                         
 ---------------------------------------------------------------------
 Center     Atomic      Atomic             Coordinates (Angstroms)
 Number     Number       Type             X           Y           Z
 ---------------------------------------------------------------------
      1          6           0        0.402802   -0.000004    0.000304
      2          1           0        0.675998   -0.898032    0.508437
      3          1           0        0.676003    0.898032    0.508420
      4          1           0        0.673104   -0.000015   -1.032275
      5          9           0        6.126499    0.000001    0.000423
      6         35           0       -1.702297    0.000001    0.000279
 ---------------------------------------------------------------------
 Rotational constants (GHZ):         156.9242296           0.5344474           0.5344301
 Standard basis: 6-31G (6D, 7F)
 There are    48 symmetry adapted cartesian basis functions of A   symmetry.
 There are    48 symmetry adapted basis functions of A   symmetry.
    48 basis functions,   133 primitive gaussians,    48 cartesian basis functions
    27 alpha electrons       27 beta electrons
       nuclear repulsion energy       112.9003792255 Hartrees.
 NAtoms=    6 NActive=    6 NUniq=    6 SFac= 1.00D+00 NAtFMM=   60 NAOKFM=F Big=F
 Integral buffers will be    131072 words long.
 Raffenetti 1 integral format.
 Two-electron integral symmetry is turned on.
 One-electron integrals computed using PRISM.
 NBasis=    48 RedAO= T EigKep=  1.58D-03  NBF=    48
 NBsUse=    48 1.00D-06 EigRej= -1.00D+00 NBFU=    48
 Initial guess from the checkpoint file:  "Freactant.chk"
 B after Tr=    -0.000000    0.000000    0.000000
         Rot=    0.723275   -0.690561   -0.000002    0.000002 Ang= -87.35 deg.
 ExpMin= 1.43D-01 ExpMax= 5.74D+05 ExpMxC= 5.74D+03 IAcc=3 IRadAn=         5 AccDes= 0.00D+00
 Harris functional with IExCor=  205 and IRadAn=       5 diagonalized for initial guess.
 HarFok:  IExCor=  205 AccDes= 0.00D+00 IRadAn=         5 IDoV= 1 UseB2=F ITyADJ=14
 ICtDFT=  3500011 ScaDFX=  1.000000  1.000000  1.000000  1.000000
 FoFCou: FMM=F IPFlag=           0 FMFlag=      100000 FMFlg1=           0
         NFxFlg=           0 DoJE=T BraDBF=F KetDBF=T FulRan=T
         wScrn=  0.000000 ICntrl=       500 IOpCl=  0 I1Cent=   200000004 NGrid=           0
         NMat0=    1 NMatS0=      1 NMatT0=    0 NMatD0=    1 NMtDS0=    0 NMtDT0=    0
 Petite list used in FoFCou.
 Keep R1 ints in memory in canonical form, NReq=1687786.
 Requested convergence on RMS density matrix=1.00D-08 within 128 cycles.
 Requested convergence on MAX density matrix=1.00D-06.
 Requested convergence on             energy=1.00D-06.
 No special actions if energy rises.
 SCF Done:  E(RHF) =  -2708.71126401     A.U. after   11 cycles
            NFock= 11  Conv=0.82D-08     -V/T= 2.0025
 Calling FoFJK, ICntrl=      2127 FMM=F ISym2X=0 I1Cent= 0 IOpClX= 0 NMat=1 NMatS=1 NMatT=0.
 ***** Axes restored to original set *****
 -------------------------------------------------------------------
 Center     Atomic                   Forces (Hartrees/Bohr)
 Number     Number              X              Y              Z
 -------------------------------------------------------------------
      1        6          -0.011876837   -0.008440230    0.014618740
      2        1           0.002748679   -0.001581694   -0.000617986
      3        1           0.002748832    0.001325845    0.001060820
      4        1          -0.002347256    0.001176241   -0.002036903
      5        9          -0.000660136   -0.000573980    0.000994150
      6       35           0.009386718    0.008093819   -0.014018822
 -------------------------------------------------------------------
 Cartesian Forces:  Max     0.014618740 RMS     0.006707483

 GradGradGradGradGradGradGradGradGradGradGradGradGradGradGradGradGradGrad
 Berny optimization.
 Using GEDIIS/GDIIS optimizer.
 FormGI is forming the generalized inverse of G from B-inverse, IUseBI=4.
 Internal  Forces:  Max     0.018711908 RMS     0.004072762
 Search for a local minimum.
 Step number   3 out of a maximum of   33
 All quantities printed in internal units (Hartrees-Bohrs-Radians)
 Mixed Optimization -- RFO/linear search
 Update second derivatives using D2CorX and points    2    3
 DE= -1.83D-02 DEPred=-9.91D-03 R= 1.84D+00
 TightC=F SS=  1.41D+00  RLast= 7.84D-01 DXNew= 8.4853D-01 2.3512D+00
 Trust test= 1.84D+00 RLast= 7.84D-01 DXMaxT set to 8.49D-01
 ITU=  1  1  0
 Use linear search instead of GDIIS.
     Eigenvalues ---    0.00183   0.04179   0.04436   0.05551   0.06185
     Eigenvalues ---    0.06463   0.15894   0.16000   0.29351   0.37230
     Eigenvalues ---    0.37230   0.37542
 RFO step:  Lambda=-1.71510847D-03 EMin= 1.83095602D-03
 Quartic linear search produced a step of -0.04440.
 Iteration  1 RMS(Cart)=  0.04367834 RMS(Int)=  0.03327042
 Iteration  2 RMS(Cart)=  0.03035299 RMS(Int)=  0.00102449
 Iteration  3 RMS(Cart)=  0.00000008 RMS(Int)=  0.00102449
 Variable       Old X    -DE/DX   Delta X   Delta X   Delta X     New X
                                 (Linear)    (Quad)   (Total)
    R1        2.01705   0.00290   0.00004   0.00679   0.00682   2.02387
    R2        2.01705   0.00290   0.00004   0.00679   0.00682   2.02387
    R3        2.01704   0.00332   0.00004   0.00784   0.00788   2.02492
    R4       10.81622  -0.00132   0.00367  -0.36315  -0.35948  10.45674
    R5        3.97806  -0.01871  -0.00541  -0.05887  -0.06428   3.91378
    A1        1.99954  -0.00061   0.00385  -0.03229  -0.02564   1.97390
    A2        1.97764   0.00023   0.00482  -0.00118   0.00582   1.98346
    A3        1.31195  -0.00014   0.00844  -0.01441  -0.00573   1.30623
    A4        1.82964   0.00009  -0.00844   0.01366   0.00497   1.83461
    A5        1.97764   0.00023   0.00482  -0.00118   0.00582   1.98346
    A6        1.31195  -0.00014   0.00844  -0.01441  -0.00574   1.30621
    A7        1.82964   0.00009  -0.00844   0.01366   0.00497   1.83460
    A8        1.31479   0.00010   0.00831  -0.01421  -0.00578   1.30901
    A9        1.82681   0.00001  -0.00831   0.01573   0.00730   1.83411
   A10        3.14159  -0.00005   0.00000  -0.00075  -0.00076   3.14083
   A11        3.14158  -0.00009   0.00000  -0.00137  -0.00136   3.14022
    D1       -2.31662   0.00044  -0.02611   0.04973   0.02616  -2.29046
    D2       -2.11179   0.00055   0.00077   0.02318   0.02377  -2.08802
    D3        2.11178  -0.00060  -0.00077  -0.02388  -0.02448   2.08731
    D4        2.08570   0.00028   0.00039   0.01159   0.01188   2.09758
    D5       -2.08570  -0.00030  -0.00039  -0.01194  -0.01224  -2.09794
    D6       -2.08570  -0.00028  -0.00039  -0.01159  -0.01188  -2.09759
    D7        2.08570   0.00030   0.00039   0.01194   0.01224   2.09794
         Item               Value     Threshold  Converged?
 Maximum Force            0.018712     0.000450     NO 
 RMS     Force            0.004073     0.000300     NO 
 Maximum Displacement     0.236968     0.001800     NO 
 RMS     Displacement     0.073348     0.001200     NO 
 Predicted change in Energy=-1.037590D-03
 GradGradGradGradGradGradGradGradGradGradGradGradGradGradGradGradGradGrad

                          Input orientation:                          
 ---------------------------------------------------------------------
 Center     Atomic      Atomic             Coordinates (Angstroms)
 Number     Number       Type             X           Y           Z
 ---------------------------------------------------------------------
      1          6           0       -2.190827    1.212006    0.054467
      2          1           0       -1.600697    0.430508   -0.379145
      3          1           0       -1.600615    1.978204    0.514468
      4          1           0       -2.951169    1.589570   -0.599388
      5          9           0        0.559155    3.612911   -4.103960
      6         35           0       -3.217357    0.312622    1.612267
 ---------------------------------------------------------------------
                    Distance matrix (angstroms):
                    1          2          3          4          5
     1  C    0.000000
     2  H    1.070986   0.000000
     3  H    1.070986   1.787150   0.000000
     4  H    1.071541   1.793239   1.793240   0.000000
     5  F    5.533467   5.354147   5.354133   5.357080   0.000000
     6  Br   2.071086   2.567724   2.567719   2.567659   7.604551
                    6
     6  Br   0.000000
 Stoichiometry    CH3BrF(1-)
 Framework group  C1[X(CH3BrF)]
 Deg. of freedom    12
 Full point group                 C1      NOp   1
 Largest Abelian subgroup         C1      NOp   1
 Largest concise Abelian subgroup C1      NOp   1
                         Standard orientation:                         
 ---------------------------------------------------------------------
 Center     Atomic      Atomic             Coordinates (Angstroms)
 Number     Number       Type             X           Y           Z
 ---------------------------------------------------------------------
      1          6           0        0.412251   -0.001994    0.000014
      2          1           0        0.692089    0.517817    0.893601
      3          1           0        0.692097    0.517856   -0.893548
      4          1           0        0.690020   -1.036907   -0.000007
      5          9           0        5.945718    0.000373   -0.000004
      6         35           0       -1.658834    0.000281   -0.000003
 ---------------------------------------------------------------------
 Rotational constants (GHZ):         156.2898899           0.5660454           0.5660360
 Standard basis: 6-31G (6D, 7F)
 There are    48 symmetry adapted cartesian basis functions of A   symmetry.
 There are    48 symmetry adapted basis functions of A   symmetry.
    48 basis functions,   133 primitive gaussians,    48 cartesian basis functions
    27 alpha electrons       27 beta electrons
       nuclear repulsion energy       114.8266154832 Hartrees.
 NAtoms=    6 NActive=    6 NUniq=    6 SFac= 1.00D+00 NAtFMM=   60 NAOKFM=F Big=F
 Integral buffers will be    131072 words long.
 Raffenetti 1 integral format.
 Two-electron integral symmetry is turned on.
 One-electron integrals computed using PRISM.
 NBasis=    48 RedAO= T EigKep=  1.58D-03  NBF=    48
 NBsUse=    48 1.00D-06 EigRej= -1.00D+00 NBFU=    48
 Initial guess from the checkpoint file:  "Freactant.chk"
 B after Tr=    -0.000000   -0.000000    0.000000
         Rot=    0.707118    0.707096    0.000002   -0.000002 Ang=  90.00 deg.
 ExpMin= 1.43D-01 ExpMax= 5.74D+05 ExpMxC= 5.74D+03 IAcc=3 IRadAn=         5 AccDes= 0.00D+00
 Harris functional with IExCor=  205 and IRadAn=       5 diagonalized for initial guess.
 HarFok:  IExCor=  205 AccDes= 0.00D+00 IRadAn=         5 IDoV= 1 UseB2=F ITyADJ=14
 ICtDFT=  3500011 ScaDFX=  1.000000  1.000000  1.000000  1.000000
 FoFCou: FMM=F IPFlag=           0 FMFlag=      100000 FMFlg1=           0
         NFxFlg=           0 DoJE=T BraDBF=F KetDBF=T FulRan=T
         wScrn=  0.000000 ICntrl=       500 IOpCl=  0 I1Cent=   200000004 NGrid=           0
         NMat0=    1 NMatS0=      1 NMatT0=    0 NMatD0=    1 NMtDS0=    0 NMtDT0=    0
 Petite list used in FoFCou.
 Keep R1 ints in memory in canonical form, NReq=1687902.
 Requested convergence on RMS density matrix=1.00D-08 within 128 cycles.
 Requested convergence on MAX density matrix=1.00D-06.
 Requested convergence on             energy=1.00D-06.
 No special actions if energy rises.
 SCF Done:  E(RHF) =  -2708.71280297     A.U. after    9 cycles
            NFock=  9  Conv=0.89D-08     -V/T= 2.0025
 Calling FoFJK, ICntrl=      2127 FMM=F ISym2X=0 I1Cent= 0 IOpClX= 0 NMat=1 NMatS=1 NMatT=0.
 ***** Axes restored to original set *****
 -------------------------------------------------------------------
 Center     Atomic                   Forces (Hartrees/Bohr)
 Number     Number              X              Y              Z
 -------------------------------------------------------------------
      1        6          -0.006432082   -0.005988724    0.010373551
      2        1           0.000149447    0.000311897   -0.001256499
      3        1           0.000149653    0.000932387   -0.000898791
      4        1           0.001164831    0.000408191   -0.000707035
      5        9          -0.000691666   -0.000605325    0.001048431
      6       35           0.005659817    0.004941574   -0.008559657
 -------------------------------------------------------------------
 Cartesian Forces:  Max     0.010373551 RMS     0.004229085

 GradGradGradGradGradGradGradGradGradGradGradGradGradGradGradGradGradGrad
 Berny optimization.
 Using GEDIIS/GDIIS optimizer.
 FormGI is forming the generalized inverse of G from B-inverse, IUseBI=4.
 Internal  Forces:  Max     0.011389475 RMS     0.002433206
 Search for a local minimum.
 Step number   4 out of a maximum of   33
 All quantities printed in internal units (Hartrees-Bohrs-Radians)
 Mixed Optimization -- RFO/linear search
 Update second derivatives using D2CorX and points    3    4
 DE= -1.54D-03 DEPred=-1.04D-03 R= 1.48D+00
 TightC=F SS=  1.41D+00  RLast= 3.70D-01 DXNew= 1.4270D+00 1.1099D+00
 Trust test= 1.48D+00 RLast= 3.70D-01 DXMaxT set to 1.11D+00
 ITU=  1  1  1  0
 Use linear search instead of GDIIS.
     Eigenvalues ---    0.00099   0.03935   0.04375   0.05804   0.06194
     Eigenvalues ---    0.06405   0.16000   0.16065   0.18326   0.37213
     Eigenvalues ---    0.37230   0.40471
 RFO step:  Lambda=-1.20140875D-03 EMin= 9.93739202D-04
 Quartic linear search produced a step of  1.90339.
 Iteration  1 RMS(Cart)=  0.05531180 RMS(Int)=  0.19213805
 Iteration  2 RMS(Cart)=  0.03806707 RMS(Int)=  0.15043495
 Iteration  3 RMS(Cart)=  0.03806929 RMS(Int)=  0.10873251
 Iteration  4 RMS(Cart)=  0.03806933 RMS(Int)=  0.06703062
 Iteration  5 RMS(Cart)=  0.03806933 RMS(Int)=  0.02533199
 Iteration  6 RMS(Cart)=  0.02311858 RMS(Int)=  0.00058855
 Iteration  7 RMS(Cart)=  0.00000010 RMS(Int)=  0.00058855
 Variable       Old X    -DE/DX   Delta X   Delta X   Delta X     New X
                                 (Linear)    (Quad)   (Total)
    R1        2.02387   0.00036   0.01299  -0.00672   0.00626   2.03013
    R2        2.02387   0.00036   0.01299  -0.00672   0.00626   2.03013
    R3        2.02492  -0.00025   0.01500  -0.01225   0.00274   2.02766
    R4       10.45674  -0.00139  -0.68423  -0.43722  -1.12145   9.33528
    R5        3.91378  -0.01139  -0.12234  -0.02081  -0.14316   3.77063
    A1        1.97390   0.00001  -0.04881   0.00935  -0.04059   1.93331
    A2        1.98346  -0.00062   0.01107  -0.03072  -0.02115   1.96230
    A3        1.30623  -0.00040  -0.01090  -0.02111  -0.03205   1.27417
    A4        1.83461   0.00039   0.00947   0.02164   0.03114   1.86575
    A5        1.98346  -0.00062   0.01107  -0.03072  -0.02116   1.96230
    A6        1.30621  -0.00040  -0.01092  -0.02109  -0.03207   1.27414
    A7        1.83460   0.00039   0.00945   0.02167   0.03114   1.86574
    A8        1.30901  -0.00068  -0.01101  -0.02112  -0.03195   1.27706
    A9        1.83411   0.00070   0.01390   0.02006   0.03373   1.86784
   A10        3.14083  -0.00001  -0.00144   0.00053  -0.00091   3.13992
   A11        3.14022  -0.00002  -0.00259   0.00094  -0.00162   3.13860
    D1       -2.29046   0.00118   0.04980   0.04571   0.09419  -2.19627
    D2       -2.08802  -0.00038   0.04524  -0.03028   0.01522  -2.07280
    D3        2.08731   0.00037  -0.04659   0.03071  -0.01624   2.07106
    D4        2.09758  -0.00019   0.02262  -0.01514   0.00761   2.10518
    D5       -2.09794   0.00019  -0.02330   0.01536  -0.00812  -2.10606
    D6       -2.09759   0.00019  -0.02262   0.01514  -0.00761  -2.10520
    D7        2.09794  -0.00019   0.02329  -0.01535   0.00812   2.10606
         Item               Value     Threshold  Converged?
 Maximum Force            0.011389     0.000450     NO 
 RMS     Force            0.002433     0.000300     NO 
 Maximum Displacement     0.743775     0.001800     NO 
 RMS     Displacement     0.227262     0.001200     NO 
 Predicted change in Energy=-2.258440D-03
 GradGradGradGradGradGradGradGradGradGradGradGradGradGradGradGradGradGrad

                          Input orientation:                          
 ---------------------------------------------------------------------
 Center     Atomic      Atomic             Coordinates (Angstroms)
 Number     Number       Type             X           Y           Z
 ---------------------------------------------------------------------
      1          6           0       -2.159351    1.242981    0.000809
      2          1           0       -1.549252    0.483320   -0.451758
      3          1           0       -1.549164    2.014680    0.432407
      4          1           0       -2.895722    1.633240   -0.675037
      5          9           0        0.298246    3.385679   -3.710371
      6         35           0       -3.146265    0.375922    1.502659
 ---------------------------------------------------------------------
                    Distance matrix (angstroms):
                    1          2          3          4          5
     1  C    0.000000
     2  H    1.074301   0.000000
     3  H    1.074301   1.768278   0.000000
     4  H    1.072992   1.784699   1.784698   0.000000
     5  F    4.940020   4.738722   4.738688   4.741912   0.000000
     6  Br   1.995331   2.526209   2.526203   2.527050   6.935343
                    6
     6  Br   0.000000
 Stoichiometry    CH3BrF(1-)
 Framework group  C1[X(CH3BrF)]
 Deg. of freedom    12
 Full point group                 C1      NOp   1
 Largest Abelian subgroup         C1      NOp   1
 Largest concise Abelian subgroup C1      NOp   1
                         Standard orientation:                         
 ---------------------------------------------------------------------
 Center     Atomic      Atomic             Coordinates (Angstroms)
 Number     Number       Type             X           Y           Z
 ---------------------------------------------------------------------
      1          6           0        0.461086   -0.004284    0.000027
      2          1           0        0.774593    0.519290    0.884168
      3          1           0        0.774613    0.519285   -0.884110
      4          1           0        0.772747   -1.031016    0.000033
      5          9           0        5.401103    0.000511   -0.000008
      6         35           0       -1.534240    0.000387   -0.000005
 ---------------------------------------------------------------------
 Rotational constants (GHZ):         158.3899289           0.6784254           0.6783895
 Standard basis: 6-31G (6D, 7F)
 There are    48 symmetry adapted cartesian basis functions of A   symmetry.
 There are    48 symmetry adapted basis functions of A   symmetry.
    48 basis functions,   133 primitive gaussians,    48 cartesian basis functions
    27 alpha electrons       27 beta electrons
       nuclear repulsion energy       120.2822738982 Hartrees.
 NAtoms=    6 NActive=    6 NUniq=    6 SFac= 1.00D+00 NAtFMM=   60 NAOKFM=F Big=F
 Integral buffers will be    131072 words long.
 Raffenetti 1 integral format.
 Two-electron integral symmetry is turned on.
 One-electron integrals computed using PRISM.
 NBasis=    48 RedAO= T EigKep=  1.57D-03  NBF=    48
 NBsUse=    48 1.00D-06 EigRej= -1.00D+00 NBFU=    48
 Initial guess from the checkpoint file:  "Freactant.chk"
 B after Tr=     0.000000   -0.000000    0.000000
         Rot=    1.000000    0.000012   -0.000000   -0.000004 Ang=   0.00 deg.
 ExpMin= 1.43D-01 ExpMax= 5.74D+05 ExpMxC= 5.74D+03 IAcc=3 IRadAn=         5 AccDes= 0.00D+00
 Harris functional with IExCor=  205 and IRadAn=       5 diagonalized for initial guess.
 HarFok:  IExCor=  205 AccDes= 0.00D+00 IRadAn=         5 IDoV= 1 UseB2=F ITyADJ=14
 ICtDFT=  3500011 ScaDFX=  1.000000  1.000000  1.000000  1.000000
 FoFCou: FMM=F IPFlag=           0 FMFlag=      100000 FMFlg1=           0
         NFxFlg=           0 DoJE=T BraDBF=F KetDBF=T FulRan=T
         wScrn=  0.000000 ICntrl=       500 IOpCl=  0 I1Cent=   200000004 NGrid=           0
         NMat0=    1 NMatS0=      1 NMatT0=    0 NMatD0=    1 NMtDS0=    0 NMtDT0=    0
 Petite list used in FoFCou.
 Keep R1 ints in memory in canonical form, NReq=1688104.
 Requested convergence on RMS density matrix=1.00D-08 within 128 cycles.
 Requested convergence on MAX density matrix=1.00D-06.
 Requested convergence on             energy=1.00D-06.
 No special actions if energy rises.
 SCF Done:  E(RHF) =  -2708.71513159     A.U. after    9 cycles
            NFock=  9  Conv=0.72D-08     -V/T= 2.0024
 Calling FoFJK, ICntrl=      2127 FMM=F ISym2X=0 I1Cent= 0 IOpClX= 0 NMat=1 NMatS=1 NMatT=0.
 ***** Axes restored to original set *****
 -------------------------------------------------------------------
 Center     Atomic                   Forces (Hartrees/Bohr)
 Number     Number              X              Y              Z
 -------------------------------------------------------------------
      1        6           0.006731982    0.002416241   -0.004184308
      2        1          -0.002025474    0.000682342   -0.000742808
      3        1          -0.002025235    0.000302449   -0.000962872
      4        1           0.001300321   -0.000016404    0.000028198
      5        9          -0.000882841   -0.000776557    0.001344995
      6       35          -0.003098754   -0.002608071    0.004516795
 -------------------------------------------------------------------
 Cartesian Forces:  Max     0.006731982 RMS     0.002588387

 GradGradGradGradGradGradGradGradGradGradGradGradGradGradGradGradGradGrad
 Berny optimization.
 Using GEDIIS/GDIIS optimizer.
 FormGI is forming the generalized inverse of G from B-inverse, IUseBI=4.
 Internal  Forces:  Max     0.006065714 RMS     0.001451723
 Search for a local minimum.
 Step number   5 out of a maximum of   33
 All quantities printed in internal units (Hartrees-Bohrs-Radians)
 Mixed Optimization -- RFO/linear search
 Update second derivatives using D2CorX and points    4    5
 DE= -2.33D-03 DEPred=-2.26D-03 R= 1.03D+00
 TightC=F SS=  1.41D+00  RLast= 1.14D+00 DXNew= 1.8666D+00 3.4160D+00
 Trust test= 1.03D+00 RLast= 1.14D+00 DXMaxT set to 1.87D+00
 ITU=  1  1  1  1  0
 Use linear search instead of GDIIS.
     Eigenvalues ---    0.00064   0.04132   0.04254   0.05727   0.06016
     Eigenvalues ---    0.06254   0.16000   0.16024   0.25306   0.37230
     Eigenvalues ---    0.37270   0.41287
 RFO step:  Lambda=-1.33824423D-03 EMin= 6.36340789D-04
 Quartic linear search produced a step of  0.43113.
 Iteration  1 RMS(Cart)=  0.04264665 RMS(Int)=  0.16144941
 Iteration  2 RMS(Cart)=  0.03807378 RMS(Int)=  0.11974665
 Iteration  3 RMS(Cart)=  0.03806934 RMS(Int)=  0.07804404
 Iteration  4 RMS(Cart)=  0.03806934 RMS(Int)=  0.03634207
 Iteration  5 RMS(Cart)=  0.03317405 RMS(Int)=  0.00035227
 Iteration  6 RMS(Cart)=  0.00000017 RMS(Int)=  0.00035227
 Variable       Old X    -DE/DX   Delta X   Delta X   Delta X     New X
                                 (Linear)    (Quad)   (Total)
    R1        2.03013  -0.00132   0.00270  -0.00123   0.00147   2.03160
    R2        2.03013  -0.00132   0.00270  -0.00123   0.00147   2.03160
    R3        2.02766  -0.00092   0.00118   0.00153   0.00272   2.03038
    R4        9.33528  -0.00179  -0.48349  -0.49079  -0.97428   8.36100
    R5        3.77063   0.00607  -0.06172   0.02782  -0.03390   3.73673
    A1        1.93331   0.00062  -0.01750   0.01463  -0.00371   1.92960
    A2        1.96230  -0.00067  -0.00912  -0.00558  -0.01546   1.94685
    A3        1.27417  -0.00010  -0.01382   0.00129  -0.01262   1.26155
    A4        1.86575   0.00015   0.01343  -0.00069   0.01283   1.87858
    A5        1.96230  -0.00067  -0.00912  -0.00558  -0.01546   1.94685
    A6        1.27414  -0.00010  -0.01383   0.00128  -0.01264   1.26150
    A7        1.86574   0.00015   0.01343  -0.00069   0.01283   1.87857
    A8        1.27706  -0.00059  -0.01377   0.00118  -0.01258   1.26448
    A9        1.86784   0.00050   0.01454  -0.00230   0.01222   1.88006
   A10        3.13992   0.00005  -0.00039   0.00060   0.00021   3.14013
   A11        3.13860   0.00008  -0.00070   0.00099   0.00030   3.13890
    D1       -2.19627   0.00024   0.04061  -0.01073   0.02891  -2.16735
    D2       -2.07280  -0.00083   0.00656  -0.01573  -0.00906  -2.08186
    D3        2.07106   0.00087  -0.00700   0.01632   0.00917   2.08023
    D4        2.10518  -0.00041   0.00328  -0.00787  -0.00453   2.10065
    D5       -2.10606   0.00044  -0.00350   0.00816   0.00458  -2.10148
    D6       -2.10520   0.00041  -0.00328   0.00786   0.00452  -2.10068
    D7        2.10606  -0.00044   0.00350  -0.00816  -0.00459   2.10147
         Item               Value     Threshold  Converged?
 Maximum Force            0.006066     0.000450     NO 
 RMS     Force            0.001452     0.000300     NO 
 Maximum Displacement     0.624501     0.001800     NO 
 RMS     Displacement     0.189697     0.001200     NO 
 Predicted change in Energy=-1.194727D-03
 GradGradGradGradGradGradGradGradGradGradGradGradGradGradGradGradGradGrad

                          Input orientation:                          
 ---------------------------------------------------------------------
 Center     Atomic      Atomic             Coordinates (Angstroms)
 Number     Number       Type             X           Y           Z
 ---------------------------------------------------------------------
      1          6           0       -2.119947    1.275669   -0.055815
      2          1           0       -1.508222    0.523603   -0.520550
      3          1           0       -1.508127    2.054110    0.363110
      4          1           0       -2.847509    1.671012   -0.740473
      5          9           0        0.080699    3.194887   -3.379899
      6         35           0       -3.098403    0.416540    1.432336
 ---------------------------------------------------------------------
                    Distance matrix (angstroms):
                    1          2          3          4          5
     1  C    0.000000
     2  H    1.075077   0.000000
     3  H    1.075077   1.767288   0.000000
     4  H    1.074429   1.777246   1.777246   0.000000
     5  F    4.424452   4.223305   4.223252   4.226484   0.000000
     6  Br   1.977391   2.520696   2.520685   2.521457   6.401837
                    6
     6  Br   0.000000
 Stoichiometry    CH3BrF(1-)
 Framework group  C1[X(CH3BrF)]
 Deg. of freedom    12
 Full point group                 C1      NOp   1
 Largest Abelian subgroup         C1      NOp   1
 Largest concise Abelian subgroup C1      NOp   1
                         Standard orientation:                         
 ---------------------------------------------------------------------
 Center     Atomic      Atomic             Coordinates (Angstroms)
 Number     Number       Type             X           Y           Z
 ---------------------------------------------------------------------
      1          6           0        0.536039   -0.003545    0.000040
      2          1           0        0.862747    0.514347    0.883691
      3          1           0        0.862776    0.514356   -0.883597
      4          1           0        0.861007   -1.027652    0.000039
      5          9           0        4.960489    0.000657   -0.000013
      6         35           0       -1.441348    0.000409   -0.000007
 ---------------------------------------------------------------------
 Rotational constants (GHZ):         159.3435156           0.7924606           0.7924309
 Standard basis: 6-31G (6D, 7F)
 There are    48 symmetry adapted cartesian basis functions of A   symmetry.
 There are    48 symmetry adapted basis functions of A   symmetry.
    48 basis functions,   133 primitive gaussians,    48 cartesian basis functions
    27 alpha electrons       27 beta electrons
       nuclear repulsion energy       123.8751835414 Hartrees.
 NAtoms=    6 NActive=    6 NUniq=    6 SFac= 1.00D+00 NAtFMM=   60 NAOKFM=F Big=F
 Integral buffers will be    131072 words long.
 Raffenetti 1 integral format.
 Two-electron integral symmetry is turned on.
 One-electron integrals computed using PRISM.
 NBasis=    48 RedAO= T EigKep=  1.57D-03  NBF=    48
 NBsUse=    48 1.00D-06 EigRej= -1.00D+00 NBFU=    48
 Initial guess from the checkpoint file:  "Freactant.chk"
 B after Tr=    -0.000000   -0.000000    0.000000
         Rot=    1.000000   -0.000004   -0.000000   -0.000008 Ang=  -0.00 deg.
 ExpMin= 1.43D-01 ExpMax= 5.74D+05 ExpMxC= 5.74D+03 IAcc=3 IRadAn=         5 AccDes= 0.00D+00
 Harris functional with IExCor=  205 and IRadAn=       5 diagonalized for initial guess.
 HarFok:  IExCor=  205 AccDes= 0.00D+00 IRadAn=         5 IDoV= 1 UseB2=F ITyADJ=14
 ICtDFT=  3500011 ScaDFX=  1.000000  1.000000  1.000000  1.000000
 FoFCou: FMM=F IPFlag=           0 FMFlag=      100000 FMFlg1=           0
         NFxFlg=           0 DoJE=T BraDBF=F KetDBF=T FulRan=T
         wScrn=  0.000000 ICntrl=       500 IOpCl=  0 I1Cent=   200000004 NGrid=           0
         NMat0=    1 NMatS0=      1 NMatT0=    0 NMatD0=    1 NMtDS0=    0 NMtDT0=    0
 Petite list used in FoFCou.
 Keep R1 ints in memory in canonical form, NReq=1688477.
 Requested convergence on RMS density matrix=1.00D-08 within 128 cycles.
 Requested convergence on MAX density matrix=1.00D-06.
 Requested convergence on             energy=1.00D-06.
 No special actions if energy rises.
 SCF Done:  E(RHF) =  -2708.71695407     A.U. after    9 cycles
            NFock=  9  Conv=0.27D-08     -V/T= 2.0024
 Calling FoFJK, ICntrl=      2127 FMM=F ISym2X=0 I1Cent= 0 IOpClX= 0 NMat=1 NMatS=1 NMatT=0.
 ***** Axes restored to original set *****
 -------------------------------------------------------------------
 Center     Atomic                   Forces (Hartrees/Bohr)
 Number     Number              X              Y              Z
 -------------------------------------------------------------------
      1        6           0.009754671    0.006549632   -0.011343101
      2        1          -0.001996697    0.000826536    0.000352179
      3        1          -0.001996410   -0.000717866   -0.000540730
      4        1           0.001207000   -0.000623466    0.001079667
      5        9          -0.001298129   -0.001138642    0.001972116
      6       35          -0.005670434   -0.004896195    0.008479869
 -------------------------------------------------------------------
 Cartesian Forces:  Max     0.011343101 RMS     0.004797114

 GradGradGradGradGradGradGradGradGradGradGradGradGradGradGradGradGradGrad
 Berny optimization.
 Using GEDIIS/GDIIS optimizer.
 FormGI is forming the generalized inverse of G from B-inverse, IUseBI=4.
 Internal  Forces:  Max     0.011314944 RMS     0.002519574
 Search for a local minimum.
 Step number   6 out of a maximum of   33
 All quantities printed in internal units (Hartrees-Bohrs-Radians)
 Mixed Optimization -- RFO/linear search
 Update second derivatives using D2CorX and points    5    6
 DE= -1.82D-03 DEPred=-1.19D-03 R= 1.53D+00
 TightC=F SS=  1.41D+00  RLast= 9.76D-01 DXNew= 3.1393D+00 2.9285D+00
 Trust test= 1.53D+00 RLast= 9.76D-01 DXMaxT set to 2.93D+00
 ITU=  1  1  1  1  1  0
 Use linear search instead of GDIIS.
     Eigenvalues ---   -0.00092   0.03818   0.04050   0.04712   0.05930
     Eigenvalues ---    0.06196   0.15893   0.16000   0.17279   0.37195
     Eigenvalues ---    0.37230   0.39847
 RFO step:  Lambda=-3.72583717D-03 EMin=-9.21891624D-04
 Skip linear search -- no minimum in search direction.
 Iteration  1 RMS(Cart)=  0.03389835 RMS(Int)=  0.16654974
 Iteration  2 RMS(Cart)=  0.03807112 RMS(Int)=  0.12484683
 Iteration  3 RMS(Cart)=  0.03806934 RMS(Int)=  0.08314399
 Iteration  4 RMS(Cart)=  0.03806935 RMS(Int)=  0.04144123
 Iteration  5 RMS(Cart)=  0.03783026 RMS(Int)=  0.00014412
 Iteration  6 RMS(Cart)=  0.00000020 RMS(Int)=  0.00014411
 Variable       Old X    -DE/DX   Delta X   Delta X   Delta X     New X
                                 (Linear)    (Quad)   (Total)
    R1        2.03160  -0.00187   0.00000  -0.00687  -0.00687   2.02473
    R2        2.03160  -0.00187   0.00000  -0.00687  -0.00687   2.02473
    R3        2.03038  -0.00173   0.00000  -0.00534  -0.00534   2.02504
    R4        8.36100  -0.00262   0.00000  -0.99869  -0.99869   7.36231
    R5        3.73673   0.01131   0.00000   0.09474   0.09474   3.83146
    A1        1.92960   0.00049   0.00000   0.02469   0.02442   1.95403
    A2        1.94685  -0.00018   0.00000   0.01070   0.01034   1.95719
    A3        1.26155   0.00013   0.00000   0.01660   0.01657   1.27812
    A4        1.87858  -0.00009   0.00000  -0.01642  -0.01639   1.86219
    A5        1.94685  -0.00018   0.00000   0.01070   0.01034   1.95719
    A6        1.26150   0.00012   0.00000   0.01659   0.01656   1.27807
    A7        1.87857  -0.00009   0.00000  -0.01639  -0.01636   1.86220
    A8        1.26448  -0.00012   0.00000   0.01632   0.01635   1.28083
    A9        1.88006   0.00006   0.00000  -0.01667  -0.01671   1.86336
   A10        3.14013   0.00003   0.00000   0.00018   0.00018   3.14032
   A11        3.13890   0.00006   0.00000   0.00033   0.00033   3.13924
    D1       -2.16735  -0.00036   0.00000  -0.04826  -0.04861  -2.21596
    D2       -2.08186  -0.00044   0.00000  -0.01111  -0.01103  -2.09289
    D3        2.08023   0.00047   0.00000   0.01139   0.01130   2.09154
    D4        2.10065  -0.00022   0.00000  -0.00555  -0.00552   2.09514
    D5       -2.10148   0.00024   0.00000   0.00570   0.00566  -2.09582
    D6       -2.10068   0.00022   0.00000   0.00555   0.00551  -2.09516
    D7        2.10147  -0.00024   0.00000  -0.00569  -0.00564   2.09583
         Item               Value     Threshold  Converged?
 Maximum Force            0.011315     0.000450     NO 
 RMS     Force            0.002520     0.000300     NO 
 Maximum Displacement     0.601698     0.001800     NO 
 RMS     Displacement     0.183209     0.001200     NO 
 Predicted change in Energy=-3.748740D-03
 GradGradGradGradGradGradGradGradGradGradGradGradGradGradGradGradGradGrad

                          Input orientation:                          
 ---------------------------------------------------------------------
 Center     Atomic      Atomic             Coordinates (Angstroms)
 Number     Number       Type             X           Y           Z
 ---------------------------------------------------------------------
      1          6           0       -2.065870    1.320913   -0.134169
      2          1           0       -1.466586    0.558242   -0.589334
      3          1           0       -1.466487    2.096370    0.298716
      4          1           0       -2.804449    1.709168   -0.806552
      5          9           0       -0.128659    3.011047   -3.061495
      6         35           0       -3.069458    0.440081    1.391542
 ---------------------------------------------------------------------
                    Distance matrix (angstroms):
                    1          2          3          4          5
     1  C    0.000000
     2  H    1.071440   0.000000
     3  H    1.071440   1.776082   0.000000
     4  H    1.071606   1.778114   1.778113   0.000000
     5  F    3.895969   3.730668   3.730607   3.733564   0.000000
     6  Br   2.027522   2.550888   2.550898   2.551947   5.923487
                    6
     6  Br   0.000000
 Stoichiometry    CH3BrF(1-)
 Framework group  C1[X(CH3BrF)]
 Deg. of freedom    12
 Full point group                 C1      NOp   1
 Largest Abelian subgroup         C1      NOp   1
 Largest concise Abelian subgroup C1      NOp   1
                         Standard orientation:                         
 ---------------------------------------------------------------------
 Center     Atomic      Atomic             Coordinates (Angstroms)
 Number     Number       Type             X           Y           Z
 ---------------------------------------------------------------------
      1          6           0        0.659902   -0.002839    0.000028
      2          1           0        0.968536    0.511167    0.888017
      3          1           0        0.968576    0.510965   -0.888065
      4          1           0        0.967294   -1.029411    0.000151
      5          9           0        4.555869    0.000942   -0.000010
      6         35           0       -1.367618    0.000452   -0.000005
 ---------------------------------------------------------------------
 Rotational constants (GHZ):         158.7171820           0.9178624           0.9178541
 Standard basis: 6-31G (6D, 7F)
 There are    48 symmetry adapted cartesian basis functions of A   symmetry.
 There are    48 symmetry adapted basis functions of A   symmetry.
    48 basis functions,   133 primitive gaussians,    48 cartesian basis functions
    27 alpha electrons       27 beta electrons
       nuclear repulsion energy       125.6753275325 Hartrees.
 NAtoms=    6 NActive=    6 NUniq=    6 SFac= 1.00D+00 NAtFMM=   60 NAOKFM=F Big=F
 Integral buffers will be    131072 words long.
 Raffenetti 1 integral format.
 Two-electron integral symmetry is turned on.
 One-electron integrals computed using PRISM.
 NBasis=    48 RedAO= T EigKep=  1.58D-03  NBF=    48
 NBsUse=    48 1.00D-06 EigRej= -1.00D+00 NBFU=    48
 Initial guess from the checkpoint file:  "Freactant.chk"
 B after Tr=     0.000000    0.000000    0.000000
         Rot=    1.000000    0.000059   -0.000000   -0.000018 Ang=   0.01 deg.
 ExpMin= 1.43D-01 ExpMax= 5.74D+05 ExpMxC= 5.74D+03 IAcc=3 IRadAn=         5 AccDes= 0.00D+00
 Harris functional with IExCor=  205 and IRadAn=       5 diagonalized for initial guess.
 HarFok:  IExCor=  205 AccDes= 0.00D+00 IRadAn=         5 IDoV= 1 UseB2=F ITyADJ=14
 ICtDFT=  3500011 ScaDFX=  1.000000  1.000000  1.000000  1.000000
 FoFCou: FMM=F IPFlag=           0 FMFlag=      100000 FMFlg1=           0
         NFxFlg=           0 DoJE=T BraDBF=F KetDBF=T FulRan=T
         wScrn=  0.000000 ICntrl=       500 IOpCl=  0 I1Cent=   200000004 NGrid=           0
         NMat0=    1 NMatS0=      1 NMatT0=    0 NMatD0=    1 NMtDS0=    0 NMtDT0=    0
 Petite list used in FoFCou.
 Keep R1 ints in memory in canonical form, NReq=1688836.
 Requested convergence on RMS density matrix=1.00D-08 within 128 cycles.
 Requested convergence on MAX density matrix=1.00D-06.
 Requested convergence on             energy=1.00D-06.
 No special actions if energy rises.
 SCF Done:  E(RHF) =  -2708.72123923     A.U. after   10 cycles
            NFock= 10  Conv=0.17D-08     -V/T= 2.0025
 Calling FoFJK, ICntrl=      2127 FMM=F ISym2X=0 I1Cent= 0 IOpClX= 0 NMat=1 NMatS=1 NMatT=0.
 ***** Axes restored to original set *****
 -------------------------------------------------------------------
 Center     Atomic                   Forces (Hartrees/Bohr)
 Number     Number              X              Y              Z
 -------------------------------------------------------------------
      1        6           0.003012831    0.002406697   -0.004169744
      2        1          -0.000172394    0.000143832   -0.000159100
      3        1          -0.000172582    0.000065778   -0.000203415
      4        1           0.000308635   -0.000073319    0.000126923
      5        9          -0.002620509   -0.002288447    0.003963669
      6       35          -0.000355981   -0.000254541    0.000441667
 -------------------------------------------------------------------
 Cartesian Forces:  Max     0.004169744 RMS     0.001836745

 GradGradGradGradGradGradGradGradGradGradGradGradGradGradGradGradGradGrad
 Berny optimization.
 Using GEDIIS/GDIIS optimizer.
 FormGI is forming the generalized inverse of G from B-inverse, IUseBI=4.
 Internal  Forces:  Max     0.005273967 RMS     0.001111813
 Search for a local minimum.
 Step number   7 out of a maximum of   33
 All quantities printed in internal units (Hartrees-Bohrs-Radians)
 Mixed Optimization -- RFO/linear search
 Update second derivatives using D2CorX and points    6    7
 DE= -4.29D-03 DEPred=-3.75D-03 R= 1.14D+00
 TightC=F SS=  1.41D+00  RLast= 1.01D+00 DXNew= 4.9252D+00 3.0174D+00
 Trust test= 1.14D+00 RLast= 1.01D+00 DXMaxT set to 3.00D+00
 ITU=  1  1  1  1  1  1  0
 Use linear search instead of GDIIS.
     Eigenvalues ---   -2.98945  -0.00149   0.04179   0.04344   0.05666
     Eigenvalues ---    0.06020   0.06284   0.15910   0.16000   0.36911
     Eigenvalues ---    0.37230   0.38043
 RFO step:  Lambda=-2.98944925D+00 EMin=-2.98944924D+00
 I=     1 Eig=   -2.99D+00 Dot1=  9.52D-05
 I=     1 Stepn=  6.00D-01 RXN=   6.00D-01 EDone=F
 I=     2 Eig=   -1.49D-03 Dot1= -1.59D-03
 I=     2 Stepn= -3.00D-01 RXN=   6.71D-01 EDone=F
 Mixed    2 eigenvectors in step.  Raw Step.Grad=  1.68D-03.
 RFO eigenvector is Hessian eigenvector with negative curvature.
 Taking step of  6.00D-01 in eigenvector direction(s).  Step.Grad= -7.15D-04.
 Skip linear search -- no minimum in search direction.
 Iteration  1 RMS(Cart)=  0.05080074 RMS(Int)=  0.07114564
 Iteration  2 RMS(Cart)=  0.03769983 RMS(Int)=  0.02939256
 Iteration  3 RMS(Cart)=  0.02683158 RMS(Int)=  0.00001489
 Iteration  4 RMS(Cart)=  0.00000024 RMS(Int)=  0.00001489
 Variable       Old X    -DE/DX   Delta X   Delta X   Delta X     New X
                                 (Linear)    (Quad)   (Total)
    R1        2.02473  -0.00013   0.00000  -0.08228  -0.08228   1.94245
    R2        2.02473  -0.00013   0.00000  -0.08228  -0.08228   1.94245
    R3        2.02504  -0.00032   0.00000  -0.07512  -0.07512   1.94992
    R4        7.36231  -0.00527   0.00000  -0.21239  -0.21239   7.14992
    R5        3.83146   0.00062   0.00000   0.54076   0.54076   4.37222
    A1        1.95403   0.00003   0.00000   0.02678   0.02681   1.98083
    A2        1.95719  -0.00010   0.00000  -0.00736  -0.00738   1.94981
    A3        1.27812  -0.00006   0.00000   0.00876   0.00876   1.28689
    A4        1.86219   0.00008   0.00000  -0.00712  -0.00713   1.85506
    A5        1.95719  -0.00010   0.00000  -0.00738  -0.00739   1.94979
    A6        1.27807  -0.00006   0.00000   0.00865   0.00864   1.28671
    A7        1.86220   0.00008   0.00000  -0.00712  -0.00715   1.85506
    A8        1.28083  -0.00006   0.00000  -0.00387  -0.00386   1.27696
    A9        1.86336   0.00001   0.00000   0.00076   0.00073   1.86409
   A10        3.14032   0.00003   0.00000   0.00164   0.00163   3.14195
   A11        3.13924   0.00004   0.00000   0.00278   0.00279   3.14203
    D1       -2.21596   0.00012   0.00000  -0.02422  -0.02419  -2.24015
    D2       -2.09289  -0.00010   0.00000  -0.02219  -0.02219  -2.11508
    D3        2.09154   0.00012   0.00000   0.02384   0.02382   2.11535
    D4        2.09514  -0.00005   0.00000  -0.01111  -0.01112   2.08402
    D5       -2.09582   0.00006   0.00000   0.01191   0.01190  -2.08393
    D6       -2.09516   0.00005   0.00000   0.01108   0.01108  -2.08409
    D7        2.09583  -0.00006   0.00000  -0.01193  -0.01192   2.08391
         Item               Value     Threshold  Converged?
 Maximum Force            0.005274     0.000450     NO 
 RMS     Force            0.001112     0.000300     NO 
 Maximum Displacement     0.302228     0.001800     NO 
 RMS     Displacement     0.101761     0.001200     NO 
 Predicted change in Energy=-4.320297D-01
 GradGradGradGradGradGradGradGradGradGradGradGradGradGradGradGradGradGrad

                          Input orientation:                          
 ---------------------------------------------------------------------
 Center     Atomic      Atomic             Coordinates (Angstroms)
 Number     Number       Type             X           Y           Z
 ---------------------------------------------------------------------
      1          6           0       -2.024442    1.352085   -0.188223
      2          1           0       -1.460952    0.612582   -0.626625
      3          1           0       -1.460825    2.101456    0.232914
      4          1           0       -2.734016    1.726694   -0.836988
      5          9           0       -0.148757    2.995160   -3.033843
      6         35           0       -3.172518    0.347845    1.551474
 ---------------------------------------------------------------------
                    Distance matrix (angstroms):
                    1          2          3          4          5
     1  C    0.000000
     2  H    1.027901   0.000000
     3  H    1.027899   1.719172   0.000000
     4  H    1.031854   1.704755   1.704743   0.000000
     5  F    3.783575   3.632249   3.632070   3.621980   0.000000
     6  Br   2.313682   2.782743   2.782740   2.792536   6.097257
                    6
     6  Br   0.000000
 Stoichiometry    CH3BrF(1-)
 Framework group  C1[X(CH3BrF)]
 Deg. of freedom    12
 Full point group                 C1      NOp   1
 Largest Abelian subgroup         C1      NOp   1
 Largest concise Abelian subgroup C1      NOp   1
                         Standard orientation:                         
 ---------------------------------------------------------------------
 Center     Atomic      Atomic             Coordinates (Angstroms)
 Number     Number       Type             X           Y           Z
 ---------------------------------------------------------------------
      1          6           0        0.868902    0.000116   -0.001077
      2          1           0        1.156920    0.859852   -0.485309
      3          1           0        1.157018   -0.859320   -0.485779
      4          1           0        1.167639   -0.000148    0.986586
      5          9           0        4.652477   -0.000046   -0.000654
      6         35           0       -1.444779   -0.000019   -0.000090
 ---------------------------------------------------------------------
 Rotational constants (GHZ):         171.5753060           0.8575320           0.8574838
 Standard basis: 6-31G (6D, 7F)
 There are    48 symmetry adapted cartesian basis functions of A   symmetry.
 There are    48 symmetry adapted basis functions of A   symmetry.
    48 basis functions,   133 primitive gaussians,    48 cartesian basis functions
    27 alpha electrons       27 beta electrons
       nuclear repulsion energy       116.9863547103 Hartrees.
 NAtoms=    6 NActive=    6 NUniq=    6 SFac= 1.00D+00 NAtFMM=   60 NAOKFM=F Big=F
 Integral buffers will be    131072 words long.
 Raffenetti 1 integral format.
 Two-electron integral symmetry is turned on.
 One-electron integrals computed using PRISM.
 NBasis=    48 RedAO= T EigKep=  1.59D-03  NBF=    48
 NBsUse=    48 1.00D-06 EigRej= -1.00D+00 NBFU=    48
 Initial guess from the checkpoint file:  "Freactant.chk"
 B after Tr=     0.000000    0.000000   -0.000000
         Rot=    0.707245    0.706969   -0.000041   -0.000040 Ang=  89.98 deg.
 ExpMin= 1.43D-01 ExpMax= 5.74D+05 ExpMxC= 5.74D+03 IAcc=3 IRadAn=         5 AccDes= 0.00D+00
 Harris functional with IExCor=  205 and IRadAn=       5 diagonalized for initial guess.
 HarFok:  IExCor=  205 AccDes= 0.00D+00 IRadAn=         5 IDoV= 1 UseB2=F ITyADJ=14
 ICtDFT=  3500011 ScaDFX=  1.000000  1.000000  1.000000  1.000000
 FoFCou: FMM=F IPFlag=           0 FMFlag=      100000 FMFlg1=           0
         NFxFlg=           0 DoJE=T BraDBF=F KetDBF=T FulRan=T
         wScrn=  0.000000 ICntrl=       500 IOpCl=  0 I1Cent=   200000004 NGrid=           0
         NMat0=    1 NMatS0=      1 NMatT0=    0 NMatD0=    1 NMtDS0=    0 NMtDT0=    0
 Petite list used in FoFCou.
 Keep R1 ints in memory in canonical form, NReq=1688328.
 Requested convergence on RMS density matrix=1.00D-08 within 128 cycles.
 Requested convergence on MAX density matrix=1.00D-06.
 Requested convergence on             energy=1.00D-06.
 No special actions if energy rises.
 SCF Done:  E(RHF) =  -2708.70385211     A.U. after   12 cycles
            NFock= 12  Conv=0.66D-08     -V/T= 2.0025
 Calling FoFJK, ICntrl=      2127 FMM=F ISym2X=0 I1Cent= 0 IOpClX= 0 NMat=1 NMatS=1 NMatT=0.
 ***** Axes restored to original set *****
 -------------------------------------------------------------------
 Center     Atomic                   Forces (Hartrees/Bohr)
 Number     Number              X              Y              Z
 -------------------------------------------------------------------
      1        6          -0.020671817   -0.012815384    0.022202136
      2        1           0.018117920   -0.035251752   -0.006967965
      3        1           0.018125006    0.023660888    0.027042514
      4        1          -0.033877700    0.008105438   -0.014035868
      5        9          -0.004026298   -0.003490881    0.006045883
      6       35           0.022332889    0.019791692   -0.034286700
 -------------------------------------------------------------------
 Cartesian Forces:  Max     0.035251752 RMS     0.020903270

 GradGradGradGradGradGradGradGradGradGradGradGradGradGradGradGradGradGrad
 Berny optimization.
 Using GEDIIS/GDIIS optimizer.
 FormGI is forming the generalized inverse of G from B-inverse, IUseBI=4.
 Internal  Forces:  Max     0.045453072 RMS     0.017033741
 Search for a local minimum.
 Step number   8 out of a maximum of   33
 All quantities printed in internal units (Hartrees-Bohrs-Radians)
 Mixed Optimization -- RFO/linear search
 Update second derivatives using D2CorX and points    8    7
 ITU=  0  1  1  1  1  1  1  0
 Use linear search instead of GDIIS.
     Eigenvalues ---   -0.00153   0.04217   0.04271   0.04798   0.06027
     Eigenvalues ---    0.06329   0.10441   0.15907   0.16000   0.37230
     Eigenvalues ---    0.37370   0.48394
[...]
                                   26.83592 (Kcal/Mol)
 Warning -- explicit consideration of   3 degrees of freedom as
           vibrations may cause significant error
 Vibrational temperatures:    156.56   156.56   160.73  1450.91  1776.23
          (Kelvin)           1776.72  2275.36  2357.62  2357.93  4733.25
                             4902.84  4904.00
 
 Zero-point correction=                           0.042766 (Hartree/Particle)
 Thermal correction to Energy=                    0.047820
 Thermal correction to Enthalpy=                  0.048765
 Thermal correction to Gibbs Free Energy=         0.013220
 Sum of electronic and zero-point Energies=          -2708.791369
 Sum of electronic and thermal Energies=             -2708.786314
 Sum of electronic and thermal Enthalpies=           -2708.785370
 Sum of electronic and thermal Free Energies=        -2708.820914
 
                     E (Thermal)             CV                S
                      KCal/Mol        Cal/Mol-Kelvin    Cal/Mol-Kelvin
 Total                   30.008             12.668             74.809
 Electronic               0.000              0.000              0.000
 Translational            0.889              2.981             40.081
 Rotational               0.889              2.981             24.726
 Vibrational             28.230              6.706             10.002
 Vibration     1          0.606              1.942              3.290
 Vibration     2          0.606              1.942              3.290
 Vibration     3          0.607              1.940              3.239
                       Q            Log10(Q)             Ln(Q)
 Total Bot       0.829979D-06         -6.080933        -14.001865
 Total V=0       0.388985D+14         13.589933         31.291978
 Vib (Bot)       0.311199D-18        -18.506962        -42.613854
 Vib (Bot)    1  0.188273D+01          0.274788          0.632722
 Vib (Bot)    2  0.188265D+01          0.274769          0.632680
 Vib (Bot)    3  0.183275D+01          0.263104          0.605820
 Vib (V=0)       0.145849D+02          1.163904          2.679989
 Vib (V=0)    1  0.244799D+01          0.388810          0.895268
 Vib (V=0)    2  0.244791D+01          0.388796          0.895236
 Vib (V=0)    3  0.239973D+01          0.380163          0.875358
 Electronic      0.100000D+01          0.000000          0.000000
 Translational   0.471766D+08          7.673727         17.669409
 Rotational      0.565330D+05          4.752302         10.942580
 ***** Axes restored to original set *****
 -------------------------------------------------------------------
 Center     Atomic                   Forces (Hartrees/Bohr)
 Number     Number              X              Y              Z
 -------------------------------------------------------------------
      1        6          -0.000062099    0.000033447   -0.000058084
      2        1           0.000037283   -0.000009924    0.000005337
      3        1           0.000036768   -0.000000195    0.000011645
      4        1          -0.000012572   -0.000013294    0.000023018
      5        9           0.000002433   -0.000019281    0.000033558
      6       35          -0.000001813    0.000009247   -0.000015475
 -------------------------------------------------------------------
 Cartesian Forces:  Max     0.000062099 RMS     0.000027938
 FormGI is forming the generalized inverse of G from B-inverse, IUseBI=4.

 GradGradGradGradGradGradGradGradGradGradGradGradGradGradGradGradGradGrad
 Berny optimization.
 Internal  Forces:  Max     0.000032328 RMS     0.000016062
 Search for a local minimum.
 Step number   1 out of a maximum of    2
 All quantities printed in internal units (Hartrees-Bohrs-Radians)
 Second derivative matrix not updated -- analytic derivatives used.
 ITU=  0
     Eigenvalues ---    0.00652   0.00676   0.01097   0.03687   0.04043
     Eigenvalues ---    0.06340   0.14337   0.14608   0.34473   0.39993
     Eigenvalues ---    0.40012   0.40742
 Angle between quadratic step and forces=  52.59 degrees.
 Linear search not attempted -- first point.
 Iteration  1 RMS(Cart)=  0.00221428 RMS(Int)=  0.00000271
 Iteration  2 RMS(Cart)=  0.00000235 RMS(Int)=  0.00000149
 Iteration  3 RMS(Cart)=  0.00000000 RMS(Int)=  0.00000149
 Variable       Old X    -DE/DX   Delta X   Delta X   Delta X     New X
                                 (Linear)    (Quad)   (Total)
    R1        2.02821   0.00002   0.00000   0.00008   0.00008   2.02830
    R2        2.02822   0.00002   0.00000   0.00008   0.00008   2.02830
    R3        2.02836   0.00001   0.00000  -0.00006  -0.00006   2.02830
    R4        2.72478  -0.00003   0.00000  -0.00007  -0.00007   2.72471
    R5        6.25346  -0.00001   0.00000  -0.00129  -0.00129   6.25217
    A1        1.93132  -0.00000   0.00000  -0.00012  -0.00012   1.93120
    A2        1.93114   0.00000   0.00000   0.00006   0.00006   1.93120
    A3        1.88981  -0.00002   0.00000  -0.00023  -0.00023   1.88958
    A4        1.25015   0.00002   0.00000   0.00186   0.00187   1.25201
    A5        1.93115   0.00000   0.00000   0.00005   0.00005   1.93120
    A6        1.88980  -0.00002   0.00000  -0.00022  -0.00022   1.88959
    A7        1.25030   0.00002   0.00000   0.00171   0.00171   1.25201
    A8        1.88914   0.00003   0.00000   0.00045   0.00044   1.88958
    A9        1.25558  -0.00003   0.00000  -0.00358  -0.00358   1.25200
   A10        3.13996   0.00000   0.00000   0.00164   0.00164   3.14160
   A11        3.13878   0.00000   0.00000   0.00282   0.00282   3.14160
    D1        2.14698   0.00000   0.00000  -0.00007  -0.00007   2.14691
    D2       -2.09479   0.00002   0.00000   0.00039   0.00039  -2.09439
    D3        2.09658  -0.00002   0.00000  -0.00220  -0.00220   2.09439
    D4        2.09420   0.00001   0.00000   0.00020   0.00020   2.09440
    D5       -2.09334  -0.00001   0.00000  -0.00106  -0.00106  -2.09440
    D6       -2.09420  -0.00001   0.00000  -0.00020  -0.00020  -2.09440
    D7        2.09326   0.00001   0.00000   0.00114   0.00114   2.09440
         Item               Value     Threshold  Converged?
 Maximum Force            0.000032     0.000450     YES
 RMS     Force            0.000016     0.000300     YES
 Maximum Displacement     0.005039     0.001800     NO 
 RMS     Displacement     0.002215     0.001200     NO 
 Predicted change in Energy=-1.467758D-07
                           ----------------------------
                           ! Non-Optimized Parameters !
                           ! (Angstroms and Degrees)  !
 --------------------------                            --------------------------
 ! Name  Definition              Value          Derivative Info.                !
 --------------------------------------------------------------------------------
 ! R1    R(1,2)                  1.0733         -DE/DX =    0.0                 !
 ! R2    R(1,3)                  1.0733         -DE/DX =    0.0                 !
 ! R3    R(1,4)                  1.0733         -DE/DX =    0.0                 !
 ! R4    R(1,5)                  1.4419         -DE/DX =    0.0                 !
 ! R5    R(1,6)                  3.3085         -DE/DX =    0.0                 !
 ! A1    A(2,1,3)              110.6497         -DE/DX =    0.0                 !
 ! A2    A(2,1,4)              110.6498         -DE/DX =    0.0                 !
 ! A3    A(2,1,5)              108.2652         -DE/DX =    0.0                 !
 ! A4    A(2,1,6)               71.735          -DE/DX =    0.0                 !
 ! A5    A(3,1,4)              110.6498         -DE/DX =    0.0                 !
 ! A6    A(3,1,5)              108.2653         -DE/DX =    0.0                 !
 ! A7    A(3,1,6)               71.735          -DE/DX =    0.0                 !
 ! A8    A(4,1,5)              108.2652         -DE/DX =    0.0                 !
 ! A9    A(4,1,6)               71.7342         -DE/DX =    0.0                 !
 ! A10   L(5,1,6,2,-1)         180.0002         -DE/DX =    0.0                 !
 ! A11   L(5,1,6,2,-2)         180.0005         -DE/DX =    0.0                 !
 ! D1    D(2,1,4,3)            123.009          -DE/DX =    0.0                 !
 ! D2    D(2,1,5,3)           -119.9999         -DE/DX =    0.0                 !
 ! D3    D(2,1,6,3)            119.9996         -DE/DX =    0.0                 !
 ! D4    D(2,1,5,4)            120.0            -DE/DX =    0.0                 !
 ! D5    D(2,1,6,4)           -120.0002         -DE/DX =    0.0                 !
 ! D6    D(3,1,5,4)           -120.0            -DE/DX =    0.0                 !
 ! D7    D(3,1,6,4)            120.0002         -DE/DX =    0.0                 !
 --------------------------------------------------------------------------------
 GradGradGradGradGradGradGradGradGradGradGradGradGradGradGradGradGradGrad


 ----------------------------------------------------------------------

 Electric dipole moment (input orientation):
 (Debye = 10**-18 statcoulomb cm , SI units = C m)
                  (au)            (Debye)         (10**-30 SI)
   Tot        0.108357D+01      0.275416D+01      0.918688D+01
   x          0.535962D+00      0.136228D+01      0.454407D+01
   y          0.470933D+00      0.119699D+01      0.399274D+01
   z         -0.815529D+00     -0.207287D+01     -0.691435D+01

 Dipole polarizability, Alpha (input orientation).
 (esu units = cm**3 , SI units = C**2 m**2 J**-1)
 Alpha(0;0):
               (au)            (10**-24 esu)      (10**-40 SI)
   iso        0.169049D+02      0.250504D+01      0.278723D+01
   aniso      0.862136D+01      0.127755D+01      0.142147D+01
   xx         0.161616D+02      0.239490D+01      0.266468D+01
   yx         0.185899D+01      0.275474D+00      0.306506D+00
   yy         0.156533D+02      0.231958D+01      0.258088D+01
   zx        -0.321982D+01     -0.477129D+00     -0.530877D+00
   zy        -0.281136D+01     -0.416601D+00     -0.463531D+00
   zz         0.188997D+02      0.280064D+01      0.311614D+01

 First dipole hyperpolarizability, Beta (input orientation).
 ||, _|_  parallel and perpendicular components, (z) with respect to z axis,
 vector components x,y,z.  Values do not include the 1/n! factor of 1/2.
 (esu units = statvolt**-1 cm**4 , SI units = C**3 m**3 J**-2)
 Beta(0;0,0):
               (au)            (10**-30 esu)      (10**-50 SI)
   || (z)    -0.903322D+02     -0.780399D+00     -0.289638D+00
   _|_(z)    -0.301107D+02     -0.260133D+00     -0.965458D-01
   x          0.297839D+03      0.257310D+01      0.954980D+00
   y          0.260788D+03      0.225301D+01      0.836181D+00
   z         -0.451661D+03     -0.390200D+01     -0.144819D+01
   ||         0.120119D+03      0.103774D+01      0.385146D+00
   xxx        0.457885D+01      0.395577D-01      0.146815D-01
   xxy        0.261241D+02      0.225692D+00      0.837632D-01
   yxy        0.310794D+02      0.268502D+00      0.996517D-01
   yyy       -0.123379D+01     -0.106590D-01     -0.395597D-02
   xxz       -0.452423D+02     -0.390858D+00     -0.145063D+00
   yxz       -0.281789D+02     -0.243444D+00     -0.903517D-01
   yyz       -0.263292D+02     -0.227464D+00     -0.844209D-01
   zxz        0.636215D+02      0.549640D+00      0.203994D+00
   zyz        0.620391D+02      0.535969D+00      0.198920D+00
   zzz       -0.789821D+02     -0.682344D+00     -0.253245D+00

 ----------------------------------------------------------------------

 Dipole orientation:
     6         -3.78479038         -2.59489082          1.13036791
     1         -3.07034838         -0.80820599          0.48929019
     1         -2.59949821         -4.11091851          0.48974026
     1         -5.69502277         -2.86729886          0.50502805
     9         -3.77151359         -2.59264397          3.85511351
    35         -3.79597045         -2.59677892         -5.12307800

 Electric dipole moment (dipole orientation):
 (Debye = 10**-18 statcoulomb cm , SI units = C m)
                  (au)            (Debye)         (10**-30 SI)
   Tot        0.108357D+01      0.275416D+01      0.918688D+01
   x          0.000000D+00      0.000000D+00      0.000000D+00
   y          0.000000D+00      0.000000D+00      0.000000D+00
   z          0.108357D+01      0.275416D+01      0.918688D+01

 Dipole polarizability, Alpha (dipole orientation).
 (esu units = cm**3 , SI units = C**2 m**2 J**-1)
 Alpha(0;0):
               (au)            (10**-24 esu)      (10**-40 SI)
   iso        0.169049D+02      0.250504D+01      0.278723D+01
   aniso      0.862136D+01      0.127755D+01      0.142147D+01
   xx         0.140320D+02      0.207933D+01      0.231356D+01
   yx         0.219447D-03      0.325187D-04      0.361819D-04
   yy         0.140302D+02      0.207906D+01      0.231327D+01
   zx         0.235715D-01      0.349293D-02      0.388641D-02
   zy         0.398886D-02      0.591088D-03      0.657674D-03
   zz         0.226524D+02      0.335673D+01      0.373487D+01

 First dipole hyperpolarizability, Beta (dipole orientation).
 ||, _|_  parallel and perpendicular components, (z) with respect to z axis,
 vector components x,y,z.  Values do not include the 1/n! factor of 1/2.
 (esu units = statvolt**-1 cm**4 , SI units = C**3 m**3 J**-2)
 Beta(0;0,0):
               (au)            (10**-30 esu)      (10**-50 SI)
   || (z)     0.120119D+03      0.103774D+01      0.385145D+00
   _|_(z)     0.400397D+02      0.345912D+00      0.128382D+00
   x          0.872398D+00      0.753683D-02      0.279722D-02
   y          0.147650D+00      0.127558D-02      0.473421D-03
   z          0.600596D+03      0.518868D+01      0.192573D+01
   ||         0.120119D+03      0.103774D+01      0.385146D+00
   xxx       -0.194175D+02     -0.167752D+00     -0.622597D-01
   xxy       -0.869851D+01     -0.751484D-01     -0.278906D-01
   yxy        0.191301D+02      0.165269D+00      0.613381D-01
   yyy        0.865021D+01      0.747311D-01      0.277357D-01
   xxz       -0.688735D+01     -0.595013D-01     -0.220833D-01
   yxz        0.932880D-02      0.805936D-04      0.299115D-04
   yyz       -0.695781D+01     -0.601101D-01     -0.223093D-01
   zxz        0.578218D+00      0.499535D-02      0.185398D-02
   zyz        0.975189D-01      0.842487D-03      0.312681D-03
   zzz        0.214044D+03      0.184917D+01      0.686302D+00

 ----------------------------------------------------------------------
 1\1\GINC-NODE12\Freq\RHF\6-31G\C1H3Br1F1(1-)\SC4101.25\05-Dec-2025\0\\
 #N Geom=AllCheck Guess=TCheck SCRF=Check GenChk RHF/6-31G Freq\\Title 
 Card Required\\-1,1\C,-1.5958023721,1.7307952131,-0.8440566632\H,-1.32
 23422724,0.6934079512,-0.812643911\H,-1.3222112607,2.2223112318,0.0700
 015347\H,-2.6469067603,1.8395783158,-1.0323421451\F,-0.8764228913,2.35
 55295628,-1.9262994574\Br,-3.2378236833,0.2941990553,1.6440496121\\Ver
 sion=ES64L-G16RevB.01\State=1-A\HF=-2708.8341348\RMSD=6.925e-10\RMSF=2
 .794e-05\ZeroPoint=0.0427658\Thermal=0.0478203\Dipole=0.5359617,0.4709
 331,-0.8155294\DipoleDeriv=0.5893717,0.1579336,-0.2735723,0.1579606,0.
 5439781,-0.237983,-0.2736178,-0.2379819,0.8188737,0.038993,0.0833407,0
 .0256879,0.0390735,-0.0893352,0.0134552,0.0410409,-0.0400791,0.0492229
 ,0.0389586,-0.0639345,-0.0593339,-0.0550983,0.0030517,-0.0934166,-0.01
 33239,-0.039889,-0.0431921,-0.0925335,0.010714,-0.0185337,0.0462079,0.
 064463,0.03448,-0.080005,0.0344874,0.0246377,-0.6050351,-0.1574755,0.2
 727941,-0.1576388,-0.5606447,0.2371862,0.2730714,0.2371814,-0.8345948,
 -0.9697547,-0.0305783,0.0529579,-0.0305049,-0.961513,0.0462781,0.05283
 43,0.0462812,-1.0149474\Polar=16.1615708,1.858991,15.6533065,-3.219824
 4,-2.811364,18.8996813\PolarDeriv=4.0355601,-1.3304224,-1.9184779,2.30
 31977,1.4482687,-3.5912105,-1.1198408,-2.1508593,3.8964747,1.4457993,0
 .2585139,-4.0845519,1.9383858,1.4458609,-0.0958615,-3.8211066,-4.28941
 74,0.4221061,0.5994189,-2.3402873,0.9935283,0.3044389,0.183764,0.00776
 57,-0.9468668,1.2661973,-7.8871646,0.2374052,0.4068228,-0.7348859,0.12
 34628,0.1775819,0.2311961,0.2377368,-2.1128001,1.0503004,0.6003649,0.9
 070489,0.4137085,2.1789401,0.5185638,0.5883701,0.3670188,0.6750061,1.9
 379322,0.519122,2.6687128,1.263579,0.8816298,0.5789901,1.387533,0.8301
 349,1.8006866,6.7194629,-8.1508932,0.4131327,-0.639484,-0.7148632,0.30
 37238,-0.990052,0.3456048,-2.0919361,-0.0873057,0.2507591,-0.0197911,0
 .0377649,-0.5979975,0.250712,0.0631322,-2.3813334,0.085832,0.0231215,3
 .1023664,2.233118,0.6068215,-3.8682768,-1.6646954,2.5293342,0.7499204,
 2.3136442,2.4211034,-1.6645519,-3.3100952,2.2588078,-1.2988823,-1.6645
 642,-0.7429471,4.2360653,3.7407711,-7.3638196,-0.1868171,0.1174101,0.5
 439036,-0.2034367,-0.7896249,1.4557924,0.6041636,-0.0120523,-0.28104,-
 0.7885338,-0.0041632,1.2592861,-1.0465987,-0.7885808,-0.8430527,0.8985
 03,0.7749279,-0.8511712\HyperPolar=4.5788534,26.1240689,31.0793778,-1.
 2337872,-45.242284,-28.1788884,-26.3291796,63.6215241,62.0390582,-78.9
 821254\Quadrupole=1.7072962,2.8841029,-4.5913991,-4.2847112,7.421546,6
 .4735698\PG=C01 [X(C1H3Br1F1)]\NImag=0\\0.64000219,-0.05297865,0.65548
 702,0.09177568,0.07974996,0.56336308,-0.08580853,0.08912830,-0.0057163
 8,0.08474929,0.08461709,-0.35216727,-0.00196815,-0.08648129,0.37778512
 ,-0.00413038,-0.00738273,-0.05724726,-0.00208361,-0.00707517,0.0629712
 8,-0.08583038,-0.03963361,-0.08007214,0.00608721,0.00709879,0.00877664
 ,0.08477125,-0.03875189,-0.13503223,-0.13274290,-0.01115508,-0.0140855
 1,-0.03150436,0.04506587,0.13555170,-0.07537113,-0.12732896,-0.2743559
 9,-0.00175895,0.00140703,0.00329238,0.07388172,0.13277728,0.30517794,-
 0.35723595,0.03772876,-0.06531135,-0.00703108,-0.00094839,-0.00353694,
 -0.00703465,0.00353885,-0.00094793,0.38564561,0.04134772,-0.06685586,0
 .00350042,0.03677007,-0.00146965,0.00794037,-0.01859603,0.00523242,-0.
 00543887,-0.03536359,0.06392646,-0.07158077,0.00350047,-0.07088671,0.0
 0024268,-0.00157131,0.00378718,-0.03172071,0.00407505,-0.00291086,0.06
 121026,-0.01022602,0.07572570,-0.10877786,-0.03469155,0.06009701,0.002
 29144,-0.00292969,0.00118542,0.00229449,0.00044105,0.00312764,-0.01448
 544,-0.02367652,0.04101444,0.11910228,-0.03467676,-0.09896538,0.052154
 55,-0.02748654,-0.01030070,0.03746399,0.00532521,0.00807846,-0.0026678
 2,-0.00401827,-0.00018195,0.00454773,0.06263418,0.10131415,0.06007226,
 0.05215530,-0.15920750,0.00972271,0.00794590,-0.01201363,0.02866622,0.
 02684695,-0.03039750,0.00696276,0.00455030,-0.00543994,-0.10850300,-0.
 09419211,0.21011330,-0.00234947,0.00044675,-0.00077281,-0.00028833,-0.
 00135650,-0.00021113,-0.00028791,0.00086120,0.00106864,0.00014150,-0.0
 0048165,0.00083409,-0.00042491,-0.00177781,0.00307905,0.00320913,0.000
 44250,-0.00246628,-0.00069387,-0.00077546,0.00023800,0.00055790,0.0007
 3978,0.00025516,0.00125134,-0.00093735,-0.00065143,-0.00032592,-0.0017
 7747,0.00005542,0.00269365,0.00230802,0.00256913,-0.00076565,-0.000694
 05,-0.00166561,-0.00040647,0.00126170,-0.00078994,0.00046827,0.0005479
 8,-0.00080596,0.00162320,-0.00032620,-0.00027536,0.00307849,0.00269367
 ,-0.00305472,-0.00399784,-0.00348310,0.00659159\\0.00006210,-0.0000334
 5,0.00005808,-0.00003728,0.00000992,-0.00000534,-0.00003677,0.00000020
 ,-0.00001164,0.00001257,0.00001329,-0.00002302,-0.00000243,0.00001928,
 -0.00003356,0.00000181,-0.00000925,0.00001547\\\@


 THERE IS AN OLD, OLD RECIPE IN MAINE FOR STEWING COOT. PLACE THE
 BIRD IN A KETTLE OF WATER WITH A RED BUILDING BRICK FREE OF MORTAR AND
 BLEMISHES. PARBOIL THE COOT AND BRICK TOGETHER FOR THREE HOURS.
 POUR OFF THE WATER, REFILL THE KETTLE, AND AGAIN PARBOIL FOR THREE HOURS.
 ONCE AGAIN POUR OFF THE WATER, FOR THE LAST TIME ADD FRESH WATER,
 AND LET THE COOT AND BRICK SIMMER TOGETHER OVERNIGHT. IN THE MORNING,
 THROW AWAY THE COOT AND EAT THE BRICK.
 Job cpu time:       0 days  0 hours  0 minutes  5.0 seconds.
 Elapsed time:       0 days  0 hours  0 minutes  5.1 seconds.
 File lengths (MBytes):  RWF=      6 Int=      0 D2E=      0 Chk=      2 Scr=      1
 Normal termination of Gaussian 16 at Fri Dec  5 11:15:08 2025.
