 Entering Gaussian System, Link 0=g16
 Input=/home/iiit/sc4101.14/Assignment/nbutane10.com
 Output=/home/iiit/sc4101.14/Assignment/nbutane10.log
 Initial command:
 /global/g16/l1.exe "/tmp/Gau-64176.inp" -scrdir="/tmp/"
 Entering Link 1 = /global/g16/l1.exe PID=     64178.
  
 Copyright (c) 1988-2017, Gaussian, Inc.  All Rights Reserved.
  
 This is part of the Gaussian(R) 16 program.  It is based on
 the Gaussian(R) 09 system (copyright 2009, Gaussian, Inc.),
 the Gaussian(R) 03 system (copyright 2003, Gaussian, Inc.),
 the Gaussian(R) 98 system (copyright 1998, Gaussian, Inc.),
 the Gaussian(R) 94 system (copyright 1995, Gaussian, Inc.),
 the Gaussian 92(TM) system (copyright 1992, Gaussian, Inc.),
 the Gaussian 90(TM) system (copyright 1990, Gaussian, Inc.),
 the Gaussian 88(TM) system (copyright 1988, Gaussian, Inc.),
 the Gaussian 86(TM) system (copyright 1986, Carnegie Mellon
 University), and the Gaussian 82(TM) system (copyright 1983,
 Carnegie Mellon University). Gaussian is a federally registered
 trademark of Gaussian, Inc.
  
 This software contains proprietary and confidential information,
 including trade secrets, belonging to Gaussian, Inc.
  
 This software is provided under written license and may be
 used, copied, transmitted, or stored only in accord with that
 written license.
  
 The following legend is applicable only to US Government
 contracts under FAR:
  
                    RESTRICTED RIGHTS LEGEND
  
 Use, reproduction and disclosure by the US Government is
 subject to restrictions as set forth in subparagraphs (a)
 and (c) of the Commercial Computer Software - Restricted
 Rights clause in FAR 52.227-19.
  
 Gaussian, Inc.
 340 Quinnipiac St., Bldg. 40, Wallingford CT 06492
  
  
 ---------------------------------------------------------------
 Warning -- This program may not be used in any manner that
 competes with the business of Gaussian, Inc. or will provide
 assistance to any competitor of Gaussian, Inc.  The licensee
 of this program is prohibited from giving any competitor of
 Gaussian, Inc. access to this program.  By using this program,
 the user acknowledges that Gaussian, Inc. is engaged in the
 business of creating and licensing software in the field of
 computational chemistry and represents and warrants to the
 licensee that it is not a competitor of Gaussian, Inc. and that
 it will not use this program in any manner prohibited above.
 ---------------------------------------------------------------
  

 Cite this work as:
 Gaussian 16, Revision B.01,
 M. J. Frisch, G. W. Trucks, H. B. Schlegel, G. E. Scuseria, 
 M. A. Robb, J. R. Cheeseman, G. Scalmani, V. Barone, 
 G. A. Petersson, H. Nakatsuji, X. Li, M. Caricato, A. V. Marenich, 
 J. Bloino, B. G. Janesko, R. Gomperts, B. Mennucci, H. P. Hratchian, 
 J. V. Ortiz, A. F. Izmaylov, J. L. Sonnenberg, D. Williams-Young, 
 F. Ding, F. Lipparini, F. Egidi, J. Goings, B. Peng, A. Petrone, 
 T. Henderson, D. Ranasinghe, V. G. Zakrzewski, J. Gao, N. Rega, 
 G. Zheng, W. Liang, M. Hada, M. Ehara, K. Toyota, R. Fukuda, 
 J. Hasegawa, M. Ishida, T. Nakajima, Y. Honda, O. Kitao, H. Nakai, 
 T. Vreven, K. Throssell, J. A. Montgomery, Jr., J. E. Peralta, 
 F. Ogliaro, M. J. Bearpark, J. J. Heyd, E. N. Brothers, K. N. Kudin, 
 V. N. Staroverov, T. A. Keith, R. Kobayashi, J. Normand, 
 K. Raghavachari, A. P. Rendell, J. C. Burant, S. S. Iyengar, 
 J. Tomasi, M. Cossi, J. M. Millam, M. Klene, C. Adamo, R. Cammi, 
 J. W. Ochterski, R. L. Martin, K. Morokuma, O. Farkas, 
 J. B. Foresman, and D. J. Fox, Gaussian, Inc., Wallingford CT, 2016.
 
 ******************************************
 Gaussian 16:  ES64L-G16RevB.01 20-Dec-2017
                15-Nov-2025 
 ******************************************
 %chk=nbutane10.chk
 ---------------------------------------------
 # opt=modredundant hf/3-21g geom=connectivity
 ---------------------------------------------
 1/18=120,19=15,38=1,57=2/1,3;
 2/9=110,12=2,17=6,18=5,40=1/2;
 3/5=5,11=9,25=1,30=1,71=1/1,2,3;
 4//1;
 5/5=2,38=5/2;
 6/7=2,8=2,9=2,10=2,28=1/1;
 7//1,2,3,16;
 1/18=20,19=15/3(2);
 2/9=110/2;
 99//99;
 2/9=110/2;
 3/5=5,11=9,25=1,30=1,71=1/1,2,3;
 4/5=5,16=3,69=1/1;
 5/5=2,38=5/2;
 7//1,2,3,16;
 1/18=20,19=15/3(-5);
 2/9=110/2;
 6/7=2,8=2,9=2,10=2,19=2,28=1/1;
 99/9=1/99;
 ----------------------------------------------------------------------
 calculation of confirmational symmetry for n-butane this time 10 degre
 es at a time
 ----------------------------------------------------------------------
 Symbolic Z-matrix:
 Charge =  0 Multiplicity = 1
 C                    -1.96103   0.12287   0. 
 H                    -2.09185   0.74578  -0.87862 
 H                    -2.74094  -0.63073   0. 
 H                    -2.09185   0.74578   0.87862 
 C                    -0.56308  -0.5253    0. 
 H                    -0.45764  -1.16067   0.87412 
 H                    -0.45764  -1.16067  -0.87412 
 C                     0.56308   0.5253    0. 
 H                     0.45764   1.16067  -0.87412 
 H                     0.45764   1.16067   0.87412 
 C                     1.96103  -0.12287   0. 
 H                     2.09186  -0.74576  -0.87864 
 H                     2.74094   0.63073   0.00003 
 H                     2.09184  -0.74581   0.87861 
 
 The following ModRedundant input section has been read:
 D       1       5       8      11 S  36 10.000                                
 

 GradGradGradGradGradGradGradGradGradGradGradGradGradGradGradGradGradGrad
 Berny optimization.
 Initialization pass.
                           ----------------------------
                           !    Initial Parameters    !
                           ! (Angstroms and Degrees)  !
 --------------------------                            --------------------------
 ! Name  Definition              Value          Derivative Info.                !
 --------------------------------------------------------------------------------
 ! R1    R(1,2)                  1.0849         estimate D2E/DX2                !
 ! R2    R(1,3)                  1.0845         estimate D2E/DX2                !
 ! R3    R(1,4)                  1.0849         estimate D2E/DX2                !
 ! R4    R(1,5)                  1.5409         estimate D2E/DX2                !
 ! R5    R(5,6)                  1.0858         estimate D2E/DX2                !
 ! R6    R(5,7)                  1.0858         estimate D2E/DX2                !
 ! R7    R(5,8)                  1.5401         estimate D2E/DX2                !
 ! R8    R(8,9)                  1.0858         estimate D2E/DX2                !
 ! R9    R(8,10)                 1.0858         estimate D2E/DX2                !
 ! R10   R(8,11)                 1.5409         estimate D2E/DX2                !
 ! R11   R(11,12)                1.0849         estimate D2E/DX2                !
 ! R12   R(11,13)                1.0845         estimate D2E/DX2                !
 ! R13   R(11,14)                1.0849         estimate D2E/DX2                !
 ! A1    A(2,1,3)              108.1942         estimate D2E/DX2                !
 ! A2    A(2,1,4)              108.1581         estimate D2E/DX2                !
 ! A3    A(2,1,5)              110.5427         estimate D2E/DX2                !
 ! A4    A(3,1,4)              108.1941         estimate D2E/DX2                !
 ! A5    A(3,1,5)              111.108          estimate D2E/DX2                !
 ! A6    A(4,1,5)              110.5428         estimate D2E/DX2                !
 ! A7    A(1,5,6)              109.527          estimate D2E/DX2                !
 ! A8    A(1,5,7)              109.527          estimate D2E/DX2                !
 ! A9    A(1,5,8)              112.1125         estimate D2E/DX2                !
 ! A10   A(6,5,7)              107.2339         estimate D2E/DX2                !
 ! A11   A(6,5,8)              109.158          estimate D2E/DX2                !
 ! A12   A(7,5,8)              109.1581         estimate D2E/DX2                !
 ! A13   A(5,8,9)              109.158          estimate D2E/DX2                !
 ! A14   A(5,8,10)             109.1581         estimate D2E/DX2                !
 ! A15   A(5,8,11)             112.1125         estimate D2E/DX2                !
 ! A16   A(9,8,10)             107.2338         estimate D2E/DX2                !
 ! A17   A(9,8,11)             109.5271         estimate D2E/DX2                !
 ! A18   A(10,8,11)            109.527          estimate D2E/DX2                !
 ! A19   A(8,11,12)            110.5428         estimate D2E/DX2                !
 ! A20   A(8,11,13)            111.108          estimate D2E/DX2                !
 ! A21   A(8,11,14)            110.5427         estimate D2E/DX2                !
 ! A22   A(12,11,13)           108.1941         estimate D2E/DX2                !
 ! A23   A(12,11,14)           108.1581         estimate D2E/DX2                !
 ! A24   A(13,11,14)           108.1942         estimate D2E/DX2                !
 ! D1    D(2,1,5,6)           -178.8092         estimate D2E/DX2                !
 ! D2    D(2,1,5,7)            -61.4664         estimate D2E/DX2                !
 ! D3    D(2,1,5,8)             59.8622         estimate D2E/DX2                !
 ! D4    D(3,1,5,6)            -58.6714         estimate D2E/DX2                !
 ! D5    D(3,1,5,7)             58.6714         estimate D2E/DX2                !
 ! D6    D(3,1,5,8)            180.0            estimate D2E/DX2                !
 ! D7    D(4,1,5,6)             61.4664         estimate D2E/DX2                !
 ! D8    D(4,1,5,7)            178.8092         estimate D2E/DX2                !
 ! D9    D(4,1,5,8)            -59.8622         estimate D2E/DX2                !
 ! D10   D(1,5,8,9)            -58.4594         estimate D2E/DX2                !
 ! D11   D(1,5,8,10)            58.4595         estimate D2E/DX2                !
 ! D12   D(1,5,8,11)           180.0            Scan                            !
 ! D13   D(6,5,8,9)           -180.0            estimate D2E/DX2                !
 ! D14   D(6,5,8,10)           -63.081          estimate D2E/DX2                !
 ! D15   D(6,5,8,11)            58.4595         estimate D2E/DX2                !
 ! D16   D(7,5,8,9)             63.0811         estimate D2E/DX2                !
 ! D17   D(7,5,8,10)           180.0            estimate D2E/DX2                !
 ! D18   D(7,5,8,11)           -58.4595         estimate D2E/DX2                !
 ! D19   D(5,8,11,12)           59.8639         estimate D2E/DX2                !
 ! D20   D(5,8,11,13)         -179.9984         estimate D2E/DX2                !
 ! D21   D(5,8,11,14)          -59.8605         estimate D2E/DX2                !
 ! D22   D(9,8,11,12)          -61.4647         estimate D2E/DX2                !
 ! D23   D(9,8,11,13)           58.673          estimate D2E/DX2                !
 ! D24   D(9,8,11,14)          178.8108         estimate D2E/DX2                !
 ! D25   D(10,8,11,12)        -178.8075         estimate D2E/DX2                !
 ! D26   D(10,8,11,13)         -58.6698         estimate D2E/DX2                !
 ! D27   D(10,8,11,14)          61.4681         estimate D2E/DX2                !
 --------------------------------------------------------------------------------
 Trust Radius=3.00D-01 FncErr=1.00D-07 GrdErr=1.00D-07 EigMax=2.50D+02 EigMin=1.00D-04
 Number of optimizations in scan=  37
 Number of steps in this run=     74 maximum allowed number of steps=    100.
 GradGradGradGradGradGradGradGradGradGradGradGradGradGradGradGradGradGrad

                          Input orientation:                          
 ---------------------------------------------------------------------
 Center     Atomic      Atomic             Coordinates (Angstroms)
 Number     Number       Type             X           Y           Z
 ---------------------------------------------------------------------
      1          6           0       -1.961026    0.122869    0.000000
      2          1           0       -2.091852    0.745784   -0.878620
      3          1           0       -2.740939   -0.630725    0.000000
      4          1           0       -2.091853    0.745784    0.878620
      5          6           0       -0.563078   -0.525303    0.000000
      6          1           0       -0.457640   -1.160671    0.874118
      7          1           0       -0.457641   -1.160670   -0.874118
      8          6           0        0.563078    0.525303    0.000000
      9          1           0        0.457640    1.160671   -0.874117
     10          1           0        0.457641    1.160670    0.874118
     11          6           0        1.961026   -0.122869    0.000000
     12          1           0        2.091864   -0.745760   -0.878635
     13          1           0        2.740939    0.630725    0.000029
     14          1           0        2.091841   -0.745807    0.878605
 ---------------------------------------------------------------------
                    Distance matrix (angstroms):
                    1          2          3          4          5
     1  C    0.000000
     2  H    1.084948   0.000000
     3  H    1.084513   1.757289   0.000000
     4  H    1.084948   1.757240   1.757288   0.000000
     5  C    1.540904   2.173657   2.180411   2.173658   0.000000
     6  H    2.161418   3.062239   2.501675   2.511024   1.085768
     7  H    2.161416   2.511022   2.501674   3.062239   1.085767
     8  C    2.555984   2.805216   3.500418   2.805217   1.540130
     9  H    2.773276   2.583033   3.768831   3.121559   2.156027
    10  H    2.773277   3.121560   3.768832   2.583035   2.156027
    11  C    3.929743   4.237022   4.729312   4.237022   2.555984
    12  H    4.237031   4.441642   4.913371   4.776624   2.805230
    13  H    4.729312   4.913363   5.625144   4.913353   3.500418
    14  H    4.237013   4.776607   4.913344   4.441637   2.805203
                    6          7          8          9         10
     6  H    0.000000
     7  H    1.748236   0.000000
     8  C    2.156028   2.156027   0.000000
     9  H    3.046751   2.495268   1.085767   0.000000
    10  H    2.495268   3.046751   1.085767   1.748235   0.000000
    11  C    2.773276   2.773277   1.540904   2.161417   2.161416
    12  H    3.121581   2.583050   2.173658   2.511013   3.062238
    13  H    3.768825   3.768838   2.180411   2.501685   2.501664
    14  H    2.583019   3.121539   2.173657   3.062239   2.511033
                   11         12         13         14
    11  C    0.000000
    12  H    1.084948   0.000000
    13  H    1.084513   1.757288   0.000000
    14  H    1.084947   1.757240   1.757289   0.000000
 Stoichiometry    C4H10
 Framework group  C1[X(C4H10)]
 Deg. of freedom    36
 Full point group                 C1      NOp   1
 Largest Abelian subgroup         C1      NOp   1
 Largest concise Abelian subgroup C1      NOp   1
                         Standard orientation:                         
 ---------------------------------------------------------------------
 Center     Atomic      Atomic             Coordinates (Angstroms)
 Number     Number       Type             X           Y           Z
 ---------------------------------------------------------------------
      1          6           0        1.961026    0.122869    0.000000
      2          1           0        2.091852    0.745784    0.878620
      3          1           0        2.740939   -0.630725    0.000000
      4          1           0        2.091853    0.745784   -0.878620
      5          6           0        0.563078   -0.525303    0.000000
      6          1           0        0.457640   -1.160671   -0.874118
      7          1           0        0.457641   -1.160670    0.874118
      8          6           0       -0.563078    0.525303    0.000000
      9          1           0       -0.457640    1.160671    0.874117
     10          1           0       -0.457641    1.160670   -0.874118
     11          6           0       -1.961026   -0.122869    0.000000
     12          1           0       -2.091864   -0.745760    0.878635
     13          1           0       -2.740939    0.630725   -0.000029
     14          1           0       -2.091841   -0.745807   -0.878605
 ---------------------------------------------------------------------
 Rotational constants (GHZ):          23.3447849           3.6168787           3.3919917
 Standard basis: 3-21G (6D, 7F)
 There are    56 symmetry adapted cartesian basis functions of A   symmetry.
 There are    56 symmetry adapted basis functions of A   symmetry.
    56 basis functions,    90 primitive gaussians,    56 cartesian basis functions
    17 alpha electrons       17 beta electrons
       nuclear repulsion energy       130.4987131498 Hartrees.
 NAtoms=   14 NActive=   14 NUniq=   14 SFac= 1.00D+00 NAtFMM=   60 NAOKFM=F Big=F
 Integral buffers will be    131072 words long.
 Raffenetti 1 integral format.
 Two-electron integral symmetry is turned on.
 One-electron integrals computed using PRISM.
 NBasis=    56 RedAO= T EigKep=  1.22D-02  NBF=    56
 NBsUse=    56 1.00D-06 EigRej= -1.00D+00 NBFU=    56
 ExpMin= 1.83D-01 ExpMax= 1.72D+02 ExpMxC= 1.72D+02 IAcc=3 IRadAn=         5 AccDes= 0.00D+00
 Harris functional with IExCor=  205 and IRadAn=       5 diagonalized for initial guess.
 HarFok:  IExCor=  205 AccDes= 0.00D+00 IRadAn=         5 IDoV= 1 UseB2=F ITyADJ=14
 ICtDFT=  3500011 ScaDFX=  1.000000  1.000000  1.000000  1.000000
 FoFCou: FMM=F IPFlag=           0 FMFlag=      100000 FMFlg1=           0
         NFxFlg=           0 DoJE=T BraDBF=F KetDBF=T FulRan=T
         wScrn=  0.000000 ICntrl=       500 IOpCl=  0 I1Cent=   200000004 NGrid=           0
         NMat0=    1 NMatS0=      1 NMatT0=    0 NMatD0=    1 NMtDS0=    0 NMtDT0=    0
 Petite list used in FoFCou.
 Keep R1 ints in memory in canonical form, NReq=2101608.
 Requested convergence on RMS density matrix=1.00D-08 within 128 cycles.
 Requested convergence on MAX density matrix=1.00D-06.
 Requested convergence on             energy=1.00D-06.
 No special actions if energy rises.
 SCF Done:  E(RHF) =  -156.432466602     A.U. after   10 cycles
            NFock= 10  Conv=0.12D-08     -V/T= 2.0016

 **********************************************************************

            Population analysis using the SCF Density.

 **********************************************************************

 Orbital symmetries:
       Occupied  (A) (A) (A) (A) (A) (A) (A) (A) (A) (A) (A) (A)
                 (A) (A) (A) (A) (A)
       Virtual   (A) (A) (A) (A) (A) (A) (A) (A) (A) (A) (A) (A)
                 (A) (A) (A) (A) (A) (A) (A) (A) (A) (A) (A) (A)
                 (A) (A) (A) (A) (A) (A) (A) (A) (A) (A) (A) (A)
                 (A) (A) (A)
 The electronic state is 1-A.
 Alpha  occ. eigenvalues --  -11.15744 -11.15724 -11.14934 -11.14915  -1.07038
 Alpha  occ. eigenvalues --   -0.98190  -0.86423  -0.79221  -0.64210  -0.58548
 Alpha  occ. eigenvalues --   -0.57352  -0.57004  -0.51365  -0.49626  -0.46334
 Alpha  occ. eigenvalues --   -0.46071  -0.44993
 Alpha virt. eigenvalues --    0.26547   0.29724   0.30890   0.32450   0.34737
 Alpha virt. eigenvalues --    0.36585   0.36679   0.37391   0.38192   0.38382
 Alpha virt. eigenvalues --    0.44223   0.45073   0.45327   0.89754   0.90605
 Alpha virt. eigenvalues --    0.91310   0.94101   1.01185   1.02937   1.05804
 Alpha virt. eigenvalues --    1.09312   1.10685   1.19217   1.25713   1.26992
 Alpha virt. eigenvalues --    1.35538   1.37082   1.37404   1.39491   1.39590
 Alpha virt. eigenvalues --    1.40985   1.44400   1.46244   1.46246   1.54606
 Alpha virt. eigenvalues --    1.88642   2.16725   2.30376   2.57854
          Condensed to atoms (all electrons):
               1          2          3          4          5          6
     1  C    5.352485   0.377167   0.380340   0.377167   0.255399  -0.042732
     2  H    0.377167   0.522121  -0.026286  -0.027435  -0.045095   0.003107
     3  H    0.380340  -0.026286   0.512932  -0.026286  -0.040119  -0.001526
     4  H    0.377167  -0.027435  -0.026286   0.522121  -0.045095  -0.001902
     5  C    0.255399  -0.045095  -0.040119  -0.045095   5.441759   0.385721
     6  H   -0.042732   0.003107  -0.001526  -0.001902   0.385721   0.526417
     7  H   -0.042733  -0.001902  -0.001526   0.003107   0.385721  -0.028176
     8  C   -0.076558  -0.001392   0.003370  -0.001392   0.249868  -0.047226
     9  H   -0.000591   0.002413  -0.000036   0.000003  -0.047226   0.003365
    10  H   -0.000591   0.000003  -0.000036   0.002413  -0.047226  -0.002123
    11  C    0.003511  -0.000036  -0.000062  -0.000036  -0.076558  -0.000591
    12  H   -0.000036   0.000003   0.000001   0.000001  -0.001392   0.000003
    13  H   -0.000062   0.000001   0.000000   0.000001   0.003370  -0.000036
    14  H   -0.000036   0.000001   0.000001   0.000003  -0.001392   0.002413
               7          8          9         10         11         12
     1  C   -0.042733  -0.076558  -0.000591  -0.000591   0.003511  -0.000036
     2  H   -0.001902  -0.001392   0.002413   0.000003  -0.000036   0.000003
     3  H   -0.001526   0.003370  -0.000036  -0.000036  -0.000062   0.000001
     4  H    0.003107  -0.001392   0.000003   0.002413  -0.000036   0.000001
     5  C    0.385721   0.249868  -0.047226  -0.047226  -0.076558  -0.001392
     6  H   -0.028176  -0.047226   0.003365  -0.002123  -0.000591   0.000003
     7  H    0.526417  -0.047226  -0.002123   0.003365  -0.000591   0.002413
     8  C   -0.047226   5.441759   0.385721   0.385722   0.255399  -0.045095
     9  H   -0.002123   0.385721   0.526417  -0.028176  -0.042732  -0.001902
    10  H    0.003365   0.385722  -0.028176   0.526417  -0.042733   0.003107
    11  C   -0.000591   0.255399  -0.042732  -0.042733   5.352485   0.377167
    12  H    0.002413  -0.045095  -0.001902   0.003107   0.377167   0.522121
    13  H   -0.000036  -0.040119  -0.001526  -0.001527   0.380340  -0.026286
    14  H    0.000003  -0.045095   0.003107  -0.001902   0.377168  -0.027435
              13         14
     1  C   -0.000062  -0.000036
     2  H    0.000001   0.000001
     3  H    0.000000   0.000001
     4  H    0.000001   0.000003
     5  C    0.003370  -0.001392
     6  H   -0.000036   0.002413
     7  H   -0.000036   0.000003
     8  C   -0.040119  -0.045095
     9  H   -0.001526   0.003107
    10  H   -0.001527  -0.001902
    11  C    0.380340   0.377168
    12  H   -0.026286  -0.027435
    13  H    0.512932  -0.026286
    14  H   -0.026286   0.522121
 Mulliken charges:
               1
     1  C   -0.582732
     2  H    0.197329
     3  H    0.199235
     4  H    0.197329
     5  C   -0.417736
     6  H    0.203287
     7  H    0.203287
     8  C   -0.417736
     9  H    0.203287
    10  H    0.203287
    11  C   -0.582732
    12  H    0.197329
    13  H    0.199235
    14  H    0.197329
 Sum of Mulliken charges =  -0.00000
 Mulliken charges with hydrogens summed into heavy atoms:
               1
     1  C    0.011162
     5  C   -0.011162
     8  C   -0.011162
    11  C    0.011162
 Electronic spatial extent (au):  <R**2>=            426.3058
 Charge=             -0.0000 electrons
 Dipole moment (field-independent basis, Debye):
    X=             -0.0000    Y=              0.0000    Z=              0.0000  Tot=              0.0000
 Quadrupole moment (field-independent basis, Debye-Ang):
   XX=            -29.3284   YY=            -28.8277   ZZ=            -28.3653
   XY=             -0.2133   XZ=              0.0000   YZ=              0.0000
 Traceless Quadrupole moment (field-independent basis, Debye-Ang):
   XX=             -0.4880   YY=              0.0128   ZZ=              0.4751
   XY=             -0.2133   XZ=              0.0000   YZ=              0.0000
 Octapole moment (field-independent basis, Debye-Ang**2):
  XXX=             -0.0000  YYY=              0.0000  ZZZ=              0.0001  XYY=              0.0000
  XXY=             -0.0000  XXZ=             -0.0000  XZZ=             -0.0000  YZZ=             -0.0000
  YYZ=             -0.0000  XYZ=              0.0000
 Hexadecapole moment (field-independent basis, Debye-Ang**3):
 XXXX=           -453.3527 YYYY=            -87.0376 ZZZZ=            -54.3701 XXXY=             -6.5405
 XXXZ=              0.0000 YYYX=             -0.8117 YYYZ=              0.0000 ZZZX=             -0.0001
 ZZZY=             -0.0000 XXYY=            -87.2325 XXZZ=            -84.3426 YYZZ=            -21.0098
 XXYZ=             -0.0001 YYXZ=              0.0001 ZZXY=              2.1156
 N-N= 1.304987131498D+02 E-N=-6.238911607252D+02  KE= 1.561826919542D+02
 Calling FoFJK, ICntrl=      2127 FMM=F ISym2X=0 I1Cent= 0 IOpClX= 0 NMat=1 NMatS=1 NMatT=0.
 ***** Axes restored to original set *****
 -------------------------------------------------------------------
 Center     Atomic                   Forces (Hartrees/Bohr)
 Number     Number              X              Y              Z
 -------------------------------------------------------------------
      1        6           0.000103002   -0.000070355    0.000000112
      2        1          -0.000049658    0.000011575    0.000006055
      3        1           0.000003343    0.000049181   -0.000000047
      4        1          -0.000049542    0.000011550   -0.000006113
      5        6          -0.000161025    0.000052154    0.000000214
      6        1           0.000022587   -0.000046961    0.000013170
      7        1           0.000022719   -0.000047311   -0.000013540
      8        6           0.000161065   -0.000052375    0.000000230
      9        1          -0.000022583    0.000047326   -0.000013621
     10        1          -0.000022768    0.000047180    0.000013634
     11        6          -0.000103036    0.000070640   -0.000000310
     12        1           0.000049474   -0.000011855    0.000006057
     13        1          -0.000003348   -0.000049150    0.000000037
     14        1           0.000049771   -0.000011599   -0.000005877
 -------------------------------------------------------------------
 Cartesian Forces:  Max     0.000161065 RMS     0.000052459

 GradGradGradGradGradGradGradGradGradGradGradGradGradGradGradGradGradGrad
 Berny optimization.
 FormGI is forming the generalized inverse of G from B-inverse, IUseBI=4.
 Internal  Forces:  Max     0.000106790 RMS     0.000028556
 Search for a local minimum.
 Step number   1 out of a maximum of   74 on scan point     1 out of    37
 All quantities printed in internal units (Hartrees-Bohrs-Radians)
 Mixed Optimization -- En-DIIS/RFO-DIIS
 Second derivative matrix not updated -- first step.
 ITU=  0
     Eigenvalues ---    0.00230   0.00230   0.01455   0.03500   0.04768
     Eigenvalues ---    0.04768   0.05448   0.05448   0.05515   0.05515
     Eigenvalues ---    0.08158   0.08158   0.10542   0.12089   0.16000
     Eigenvalues ---    0.16000   0.16000   0.16000   0.16000   0.16000
     Eigenvalues ---    0.21921   0.21921   0.28439   0.28439   0.28507
     Eigenvalues ---    0.35306   0.35306   0.35306   0.35306   0.35403
     Eigenvalues ---    0.35403   0.35403   0.35403   0.35455   0.35455
     Eigenvalues --- 1000.000001000.000001000.000001000.000001000.00000
     Eigenvalues --- 1000.000001000.000001000.000001000.000001000.00000
     Eigenvalues --- 1000.000001000.000001000.000001000.000001000.00000
     Eigenvalues --- 1000.000001000.000001000.000001000.000001000.00000
     Eigenvalues --- 1000.000001000.000001000.000001000.000001000.00000
     Eigenvalues --- 1000.000001000.000001000.000001000.00000
 RFO step:  Lambda=-3.16593154D-07 EMin= 2.30000000D-03
 Linear search not attempted -- first point.
 Iteration  1 RMS(Cart)=  0.00030989 RMS(Int)=  0.00000005
 Iteration  2 RMS(Cart)=  0.00000004 RMS(Int)=  0.00000003
 Iteration  1 RMS(Cart)=  0.00000000 RMS(Int)=  0.00000000
 Variable       Old X    -DE/DX   Delta X   Delta X   Delta X     New X
                                 (Linear)    (Quad)   (Total)
    R1        2.05025   0.00001   0.00000   0.00002   0.00002   2.05028
    R2        2.04943  -0.00004   0.00000  -0.00010  -0.00010   2.04933
    R3        2.05025   0.00001   0.00000   0.00002   0.00002   2.05028
    R4        2.91189  -0.00001   0.00000  -0.00002  -0.00002   2.91187
    R5        2.05180   0.00004   0.00000   0.00011   0.00011   2.05192
    R6        2.05180   0.00004   0.00000   0.00012   0.00012   2.05192
    R7        2.91042   0.00011   0.00000   0.00037   0.00037   2.91080
    R8        2.05180   0.00004   0.00000   0.00012   0.00012   2.05192
    R9        2.05180   0.00004   0.00000   0.00012   0.00012   2.05192
   R10        2.91189  -0.00001   0.00000  -0.00002  -0.00002   2.91187
   R11        2.05025   0.00001   0.00000   0.00002   0.00002   2.05028
   R12        2.04943  -0.00004   0.00000  -0.00010  -0.00010   2.04933
   R13        2.05025   0.00001   0.00000   0.00002   0.00002   2.05028
    A1        1.88834  -0.00004   0.00000  -0.00031  -0.00031   1.88803
    A2        1.88771  -0.00005   0.00000  -0.00023  -0.00023   1.88749
    A3        1.92933   0.00005   0.00000   0.00036   0.00036   1.92970
    A4        1.88834  -0.00004   0.00000  -0.00031  -0.00031   1.88803
    A5        1.93920   0.00002   0.00000   0.00010   0.00010   1.93930
    A6        1.92934   0.00005   0.00000   0.00036   0.00036   1.92970
    A7        1.91161   0.00001   0.00000   0.00014   0.00014   1.91175
    A8        1.91161   0.00001   0.00000   0.00014   0.00014   1.91175
    A9        1.95673   0.00003   0.00000   0.00021   0.00021   1.95694
   A10        1.87158  -0.00001   0.00000  -0.00037  -0.00037   1.87122
   A11        1.90517  -0.00001   0.00000  -0.00007  -0.00007   1.90509
   A12        1.90517  -0.00001   0.00000  -0.00007  -0.00007   1.90510
   A13        1.90517  -0.00001   0.00000  -0.00007  -0.00007   1.90509
   A14        1.90517  -0.00001   0.00000  -0.00007  -0.00007   1.90510
   A15        1.95673   0.00003   0.00000   0.00021   0.00021   1.95694
   A16        1.87158  -0.00001   0.00000  -0.00037  -0.00037   1.87122
   A17        1.91161   0.00001   0.00000   0.00014   0.00014   1.91175
   A18        1.91161   0.00001   0.00000   0.00014   0.00014   1.91175
   A19        1.92934   0.00005   0.00000   0.00036   0.00036   1.92970
   A20        1.93920   0.00002   0.00000   0.00010   0.00010   1.93930
   A21        1.92933   0.00005   0.00000   0.00036   0.00036   1.92970
   A22        1.88834  -0.00004   0.00000  -0.00031  -0.00031   1.88803
   A23        1.88771  -0.00005   0.00000  -0.00023  -0.00023   1.88749
   A24        1.88835  -0.00004   0.00000  -0.00031  -0.00031   1.88803
    D1       -3.12081   0.00001   0.00000   0.00023   0.00023  -3.12058
    D2       -1.07279  -0.00000   0.00000  -0.00005  -0.00005  -1.07284
    D3        1.04479   0.00001   0.00000   0.00009   0.00009   1.04488
    D4       -1.02401   0.00001   0.00000   0.00014   0.00014  -1.02387
    D5        1.02401  -0.00001   0.00000  -0.00014  -0.00014   1.02387
    D6        3.14159   0.00000   0.00000   0.00000   0.00000  -3.14159
    D7        1.07279   0.00000   0.00000   0.00005   0.00005   1.07284
    D8        3.12081  -0.00001   0.00000  -0.00023  -0.00023   3.12058
    D9       -1.04479  -0.00001   0.00000  -0.00009  -0.00009  -1.04488
   D10       -1.02031   0.00001   0.00000   0.00026   0.00026  -1.02005
   D11        1.02031  -0.00002   0.00000  -0.00026  -0.00026   1.02005
   D12        3.14159   0.00000   0.00000   0.00000   0.00000   3.14159
   D13       -3.14159  -0.00000   0.00000  -0.00000  -0.00000   3.14159
   D14       -1.10097  -0.00003   0.00000  -0.00052  -0.00052  -1.10149
   D15        1.02031  -0.00001   0.00000  -0.00026  -0.00026   1.02005
   D16        1.10097   0.00003   0.00000   0.00052   0.00052   1.10149
   D17        3.14159   0.00000   0.00000  -0.00000  -0.00000   3.14159
   D18       -1.02031   0.00002   0.00000   0.00026   0.00026  -1.02005
   D19        1.04482   0.00000   0.00000   0.00006   0.00006   1.04488
   D20       -3.14156  -0.00000   0.00000  -0.00003  -0.00003   3.14159
   D21       -1.04476  -0.00001   0.00000  -0.00013  -0.00013  -1.04489
   D22       -1.07276  -0.00000   0.00000  -0.00008  -0.00008  -1.07285
   D23        1.02404  -0.00001   0.00000  -0.00017  -0.00017   1.02386
   D24        3.12084  -0.00001   0.00000  -0.00027  -0.00027   3.12057
   D25       -3.12078   0.00001   0.00000   0.00020   0.00020  -3.12058
   D26       -1.02398   0.00001   0.00000   0.00011   0.00011  -1.02387
   D27        1.07282  -0.00000   0.00000   0.00002   0.00002   1.07284
         Item               Value     Threshold  Converged?
 Maximum Force            0.000107     0.000450     YES
 RMS     Force            0.000029     0.000300     YES
 Maximum Displacement     0.001115     0.001800     YES
 RMS     Displacement     0.000310     0.001200     YES
 Predicted change in Energy=-1.582993D-07
 Optimization completed.
    -- Stationary point found.
                           ----------------------------
                           !   Optimized Parameters   !
                           ! (Angstroms and Degrees)  !
 --------------------------                            --------------------------
 ! Name  Definition              Value          Derivative Info.                !
 --------------------------------------------------------------------------------
 ! R1    R(1,2)                  1.0849         -DE/DX =    0.0                 !
 ! R2    R(1,3)                  1.0845         -DE/DX =    0.0                 !
 ! R3    R(1,4)                  1.0849         -DE/DX =    0.0                 !
 ! R4    R(1,5)                  1.5409         -DE/DX =    0.0                 !
 ! R5    R(5,6)                  1.0858         -DE/DX =    0.0                 !
 ! R6    R(5,7)                  1.0858         -DE/DX =    0.0                 !
 ! R7    R(5,8)                  1.5401         -DE/DX =    0.0001              !
 ! R8    R(8,9)                  1.0858         -DE/DX =    0.0                 !
 ! R9    R(8,10)                 1.0858         -DE/DX =    0.0                 !
 ! R10   R(8,11)                 1.5409         -DE/DX =    0.0                 !
 ! R11   R(11,12)                1.0849         -DE/DX =    0.0                 !
 ! R12   R(11,13)                1.0845         -DE/DX =    0.0                 !
 ! R13   R(11,14)                1.0849         -DE/DX =    0.0                 !
 ! A1    A(2,1,3)              108.1942         -DE/DX =    0.0                 !
 ! A2    A(2,1,4)              108.1581         -DE/DX =    0.0                 !
 ! A3    A(2,1,5)              110.5427         -DE/DX =    0.0001              !
 ! A4    A(3,1,4)              108.1941         -DE/DX =    0.0                 !
 ! A5    A(3,1,5)              111.108          -DE/DX =    0.0                 !
 ! A6    A(4,1,5)              110.5428         -DE/DX =    0.0001              !
 ! A7    A(1,5,6)              109.527          -DE/DX =    0.0                 !
 ! A8    A(1,5,7)              109.527          -DE/DX =    0.0                 !
 ! A9    A(1,5,8)              112.1125         -DE/DX =    0.0                 !
 ! A10   A(6,5,7)              107.2339         -DE/DX =    0.0                 !
 ! A11   A(6,5,8)              109.158          -DE/DX =    0.0                 !
 ! A12   A(7,5,8)              109.1581         -DE/DX =    0.0                 !
 ! A13   A(5,8,9)              109.158          -DE/DX =    0.0                 !
 ! A14   A(5,8,10)             109.1581         -DE/DX =    0.0                 !
 ! A15   A(5,8,11)             112.1125         -DE/DX =    0.0                 !
 ! A16   A(9,8,10)             107.2338         -DE/DX =    0.0                 !
 ! A17   A(9,8,11)             109.5271         -DE/DX =    0.0                 !
 ! A18   A(10,8,11)            109.527          -DE/DX =    0.0                 !
 ! A19   A(8,11,12)            110.5428         -DE/DX =    0.0001              !
 ! A20   A(8,11,13)            111.108          -DE/DX =    0.0                 !
 ! A21   A(8,11,14)            110.5427         -DE/DX =    0.0001              !
 ! A22   A(12,11,13)           108.1941         -DE/DX =    0.0                 !
 ! A23   A(12,11,14)           108.1581         -DE/DX =    0.0                 !
 ! A24   A(13,11,14)           108.1942         -DE/DX =    0.0                 !
 ! D1    D(2,1,5,6)           -178.8092         -DE/DX =    0.0                 !
 ! D2    D(2,1,5,7)            -61.4664         -DE/DX =    0.0                 !
 ! D3    D(2,1,5,8)             59.8622         -DE/DX =    0.0                 !
 ! D4    D(3,1,5,6)            -58.6714         -DE/DX =    0.0                 !
 ! D5    D(3,1,5,7)             58.6714         -DE/DX =    0.0                 !
 ! D6    D(3,1,5,8)           -180.0            -DE/DX =    0.0                 !
 ! D7    D(4,1,5,6)             61.4664         -DE/DX =    0.0                 !
 ! D8    D(4,1,5,7)            178.8092         -DE/DX =    0.0                 !
 ! D9    D(4,1,5,8)            -59.8622         -DE/DX =    0.0                 !
 ! D10   D(1,5,8,9)            -58.4594         -DE/DX =    0.0                 !
 ! D11   D(1,5,8,10)            58.4595         -DE/DX =    0.0                 !
 ! D12   D(1,5,8,11)           180.0            -DE/DX =    0.0                 !
 ! D13   D(6,5,8,9)            180.0            -DE/DX =    0.0                 !
 ! D14   D(6,5,8,10)           -63.081          -DE/DX =    0.0                 !
 ! D15   D(6,5,8,11)            58.4595         -DE/DX =    0.0                 !
 ! D16   D(7,5,8,9)             63.0811         -DE/DX =    0.0                 !
 ! D17   D(7,5,8,10)           180.0            -DE/DX =    0.0                 !
 ! D18   D(7,5,8,11)           -58.4595         -DE/DX =    0.0                 !
 ! D19   D(5,8,11,12)           59.8639         -DE/DX =    0.0                 !
 ! D20   D(5,8,11,13)          180.0016         -DE/DX =    0.0                 !
 ! D21   D(5,8,11,14)          -59.8605         -DE/DX =    0.0                 !
 ! D22   D(9,8,11,12)          -61.4647         -DE/DX =    0.0                 !
 ! D23   D(9,8,11,13)           58.673          -DE/DX =    0.0                 !
 ! D24   D(9,8,11,14)          178.8108         -DE/DX =    0.0                 !
 ! D25   D(10,8,11,12)        -178.8075         -DE/DX =    0.0                 !
 ! D26   D(10,8,11,13)         -58.6698         -DE/DX =    0.0                 !
 ! D27   D(10,8,11,14)          61.4681         -DE/DX =    0.0                 !
 --------------------------------------------------------------------------------
 Iteration  1 RMS(Cart)=  0.02512170 RMS(Int)=  0.01769866
 Iteration  2 RMS(Cart)=  0.00051932 RMS(Int)=  0.01769652
 Iteration  3 RMS(Cart)=  0.00000126 RMS(Int)=  0.01769652
 Iteration  4 RMS(Cart)=  0.00000004 RMS(Int)=  0.01769652
 Iteration  1 RMS(Cart)=  0.01653915 RMS(Int)=  0.01164552
 Iteration  2 RMS(Cart)=  0.01089401 RMS(Int)=  0.01288961
 Iteration  3 RMS(Cart)=  0.00717520 RMS(Int)=  0.01481631
 Iteration  4 RMS(Cart)=  0.00472577 RMS(Int)=  0.01640371
 Iteration  5 RMS(Cart)=  0.00311244 RMS(Int)=  0.01754870
 Iteration  6 RMS(Cart)=  0.00204984 RMS(Int)=  0.01833742
 Iteration  7 RMS(Cart)=  0.00135000 RMS(Int)=  0.01886988
 Iteration  8 RMS(Cart)=  0.00088908 RMS(Int)=  0.01922569
 Iteration  9 RMS(Cart)=  0.00058553 RMS(Int)=  0.01946211
 Iteration 10 RMS(Cart)=  0.00038561 RMS(Int)=  0.01961869
 Iteration 11 RMS(Cart)=  0.00025395 RMS(Int)=  0.01972218
 Iteration 12 RMS(Cart)=  0.00016725 RMS(Int)=  0.01979049
 Iteration 13 RMS(Cart)=  0.00011014 RMS(Int)=  0.01983554
 Iteration 14 RMS(Cart)=  0.00007254 RMS(Int)=  0.01986524
 Iteration 15 RMS(Cart)=  0.00004777 RMS(Int)=  0.01988482
 Iteration 16 RMS(Cart)=  0.00003146 RMS(Int)=  0.01989771
 Iteration 17 RMS(Cart)=  0.00002072 RMS(Int)=  0.01990621
 Iteration 18 RMS(Cart)=  0.00001364 RMS(Int)=  0.01991180
 Iteration 19 RMS(Cart)=  0.00000899 RMS(Int)=  0.01991549
 Iteration 20 RMS(Cart)=  0.00000592 RMS(Int)=  0.01991792
 Iteration 21 RMS(Cart)=  0.00000390 RMS(Int)=  0.01991951
 Iteration 22 RMS(Cart)=  0.00000257 RMS(Int)=  0.01992057
 Iteration 23 RMS(Cart)=  0.00000169 RMS(Int)=  0.01992126
 Iteration 24 RMS(Cart)=  0.00000111 RMS(Int)=  0.01992172
 Iteration 25 RMS(Cart)=  0.00000073 RMS(Int)=  0.01992202
 GradGradGradGradGradGradGradGradGradGradGradGradGradGradGradGradGradGrad

                          Input orientation:                          
 ---------------------------------------------------------------------
 Center     Atomic      Atomic             Coordinates (Angstroms)
 Number     Number       Type             X           Y           Z
 ---------------------------------------------------------------------
      1          6           0       -1.956718    0.122186   -0.040092
      2          1           0       -2.022701    0.713281   -0.947801
      3          1           0       -2.736293   -0.631148   -0.069733
      4          1           0       -2.150075    0.776147    0.804077
      5          6           0       -0.563420   -0.525082    0.084437
      6          1           0       -0.455167   -1.159554    0.958937
      7          1           0       -0.460497   -1.160737   -0.789848
      8          6           0        0.563420    0.525081    0.084445
      9          1           0        0.460499    1.160747   -0.789831
     10          1           0        0.455165    1.159542    0.958953
     11          6           0        1.956718   -0.122185   -0.040090
     12          1           0        2.022701   -0.713273   -0.947804
     13          1           0        2.736293    0.631149   -0.069724
     14          1           0        2.150075   -0.776153    0.804074
 ---------------------------------------------------------------------
                    Distance matrix (angstroms):
                    1          2          3          4          5
     1  C    0.000000
     2  H    1.085211   0.000000
     3  H    1.084494   1.757187   0.000000
     4  H    1.085206   1.757627   1.757178   0.000000
     5  C    1.541344   2.174525   2.180916   2.174523   0.000000
     6  H    2.212594   3.098439   2.557520   2.577524   1.085829
     7  H    2.108720   2.444867   2.445052   3.024365   1.085829
     8  C    2.555177   2.790874   3.499821   2.818503   1.540328
     9  H    2.735627   2.528134   3.734823   3.082783   2.157492
    10  H    2.809159   3.158272   3.801338   2.637850   2.154124
    11  C    3.921058   4.166260   4.720622   4.287815   2.555177
    12  H    4.166258   4.289561   4.840019   4.764401   2.790871
    13  H    4.720622   4.840019   5.616279   4.965998   3.499820
    14  H    4.287817   4.764404   4.966000   4.571753   2.818505
                    6          7          8          9         10
     6  H    0.000000
     7  H    1.748793   0.000000
     8  C    2.154124   2.157493   0.000000
     9  H    3.046380   2.497502   1.085829   0.000000
    10  H    2.491367   3.046380   1.085829   1.748793   0.000000
    11  C    2.809159   2.735627   1.541344   2.108720   2.212594
    12  H    3.158268   2.528131   2.174525   2.444868   3.098440
    13  H    3.801339   3.734822   2.180916   2.445049   2.557522
    14  H    2.637852   3.082787   2.174522   3.024365   2.577523
                   11         12         13         14
    11  C    0.000000
    12  H    1.085211   0.000000
    13  H    1.084494   1.757187   0.000000
    14  H    1.085206   1.757627   1.757178   0.000000
 Stoichiometry    C4H10
 Framework group  C1[X(C4H10)]
 Deg. of freedom    36
 Full point group                 C1      NOp   1
 Largest Abelian subgroup         C1      NOp   1
 Largest concise Abelian subgroup C1      NOp   1
                         Standard orientation:                         
 ---------------------------------------------------------------------
 Center     Atomic      Atomic             Coordinates (Angstroms)
 Number     Number       Type             X           Y           Z
 ---------------------------------------------------------------------
      1          6           0        1.956654    0.123195    0.053136
      2          1           0        2.022333    0.714325    0.960845
      3          1           0        2.736618   -0.629736    0.082777
      4          1           0        2.149674    0.777256   -0.791033
      5          6           0        0.563691   -0.524791   -0.071393
      6          1           0        0.455765   -1.159319   -0.945892
      7          1           0        0.461096   -1.160499    0.802892
      8          6           0       -0.563691    0.524790   -0.071401
      9          1           0       -0.461097    1.160509    0.802876
     10          1           0       -0.455763    1.159307   -0.945909
     11          6           0       -1.956655   -0.123194    0.053134
     12          1           0       -2.022333   -0.714316    0.960848
     13          1           0       -2.736618    0.629738    0.082769
     14          1           0       -2.149674   -0.777262   -0.791029
 ---------------------------------------------------------------------
 Rotational constants (GHZ):          23.1108462           3.6242873           3.4042838
 Standard basis: 3-21G (6D, 7F)
 There are    56 symmetry adapted cartesian basis functions of A   symmetry.
 There are    56 symmetry adapted basis functions of A   symmetry.
    56 basis functions,    90 primitive gaussians,    56 cartesian basis functions
    17 alpha electrons       17 beta electrons
       nuclear repulsion energy       130.5236206480 Hartrees.
 NAtoms=   14 NActive=   14 NUniq=   14 SFac= 1.00D+00 NAtFMM=   60 NAOKFM=F Big=F
 Integral buffers will be    131072 words long.
 Raffenetti 1 integral format.
 Two-electron integral symmetry is turned on.
 One-electron integrals computed using PRISM.
 NBasis=    56 RedAO= T EigKep=  1.21D-02  NBF=    56
 NBsUse=    56 1.00D-06 EigRej= -1.00D+00 NBFU=    56
 Initial guess from the checkpoint file:  "nbutane10.chk"
 B after Tr=    -0.000000    0.000000   -0.000000
         Rot=    1.000000    0.000001    0.000000   -0.000231 Ang=   0.03 deg.
 ExpMin= 1.83D-01 ExpMax= 1.72D+02 ExpMxC= 1.72D+02 IAcc=3 IRadAn=         5 AccDes= 0.00D+00
 Harris functional with IExCor=  205 and IRadAn=       5 diagonalized for initial guess.
 HarFok:  IExCor=  205 AccDes= 0.00D+00 IRadAn=         5 IDoV= 1 UseB2=F ITyADJ=14
 ICtDFT=  3500011 ScaDFX=  1.000000  1.000000  1.000000  1.000000
 FoFCou: FMM=F IPFlag=           0 FMFlag=      100000 FMFlg1=           0
         NFxFlg=           0 DoJE=T BraDBF=F KetDBF=T FulRan=T
         wScrn=  0.000000 ICntrl=       500 IOpCl=  0 I1Cent=   200000004 NGrid=           0
         NMat0=    1 NMatS0=      1 NMatT0=    0 NMatD0=    1 NMtDS0=    0 NMtDT0=    0
 Petite list used in FoFCou.
 Keep R1 ints in memory in canonical form, NReq=2101634.
 Requested convergence on RMS density matrix=1.00D-08 within 128 cycles.
 Requested convergence on MAX density matrix=1.00D-06.
 Requested convergence on             energy=1.00D-06.
 No special actions if energy rises.
 SCF Done:  E(RHF) =  -156.430345387     A.U. after    9 cycles
            NFock=  9  Conv=0.84D-08     -V/T= 2.0016
 Calling FoFJK, ICntrl=      2127 FMM=F ISym2X=0 I1Cent= 0 IOpClX= 0 NMat=1 NMatS=1 NMatT=0.
 ***** Axes restored to original set *****
 -------------------------------------------------------------------
 Center     Atomic                   Forces (Hartrees/Bohr)
 Number     Number              X              Y              Z
 -------------------------------------------------------------------
      1        6          -0.001134943    0.000592834    0.010145396
      2        1           0.001445730   -0.000797923    0.000333518
      3        1          -0.000018055    0.000006976    0.000259860
      4        1          -0.001395012    0.000637469   -0.000271133
      5        6           0.000425534    0.000070362   -0.012379596
      6        1          -0.005984949    0.001977946    0.000788699
      7        1           0.006245728   -0.002527003    0.001123394
      8        6          -0.000425533   -0.000070207   -0.012379935
      9        1          -0.006245733    0.002527090    0.001123416
     10        1           0.005984944   -0.001978054    0.000788630
     11        6           0.001134953   -0.000592938    0.010145501
     12        1          -0.001445734    0.000797954    0.000333529
     13        1           0.000018042   -0.000006995    0.000259868
     14        1           0.001395027   -0.000637511   -0.000271148
 -------------------------------------------------------------------
 Cartesian Forces:  Max     0.012379935 RMS     0.004084568

 GradGradGradGradGradGradGradGradGradGradGradGradGradGradGradGradGradGrad
 Berny optimization.
 FormGI is forming the generalized inverse of G from B-inverse, IUseBI=4.
 Internal  Forces:  Max     0.008310259 RMS     0.002547425
 Search for a local minimum.
 Step number   1 out of a maximum of   74 on scan point     2 out of    37
 All quantities printed in internal units (Hartrees-Bohrs-Radians)
 Mixed Optimization -- RFO/linear search
 Second derivative matrix not updated -- first step.
 ITU=  0
     Eigenvalues ---    0.00230   0.00230   0.01448   0.03426   0.04773
     Eigenvalues ---    0.04839   0.05446   0.05446   0.05510   0.05510
     Eigenvalues ---    0.08133   0.08137   0.10558   0.12106   0.16000
     Eigenvalues ---    0.16000   0.16000   0.16000   0.16000   0.16000
     Eigenvalues ---    0.21904   0.21907   0.28439   0.28439   0.28507
     Eigenvalues ---    0.35306   0.35306   0.35306   0.35306   0.35403
     Eigenvalues ---    0.35403   0.35403   0.35403   0.35455   0.35455
     Eigenvalues --- 1000.000001000.000001000.000001000.000001000.00000
     Eigenvalues --- 1000.000001000.000001000.000001000.000001000.00000
     Eigenvalues --- 1000.000001000.000001000.000001000.000001000.00000
     Eigenvalues --- 1000.000001000.000001000.000001000.000001000.00000
     Eigenvalues --- 1000.000001000.000001000.000001000.000001000.00000
     Eigenvalues --- 1000.000001000.000001000.000001000.00000
 RFO step:  Lambda=-3.70970650D-03 EMin= 2.30000000D-03
 Linear search not attempted -- first point.
 Iteration  1 RMS(Cart)=  0.04220185 RMS(Int)=  0.00146094
 Iteration  2 RMS(Cart)=  0.00137831 RMS(Int)=  0.00042020
 Iteration  3 RMS(Cart)=  0.00000056 RMS(Int)=  0.00042020
 Iteration  1 RMS(Cart)=  0.00000133 RMS(Int)=  0.00000094
 Iteration  2 RMS(Cart)=  0.00000088 RMS(Int)=  0.00000104
 Variable       Old X    -DE/DX   Delta X   Delta X   Delta X     New X
                                 (Linear)    (Quad)   (Total)
    R1        2.05075  -0.00080   0.00000  -0.00224  -0.00224   2.04851
    R2        2.04940   0.00000   0.00000   0.00000   0.00000   2.04940
    R3        2.05074   0.00042   0.00000   0.00118   0.00118   2.05192
    R4        2.91272   0.00034   0.00000   0.00116   0.00116   2.91388
    R5        2.05192  -0.00112   0.00000  -0.00313  -0.00313   2.04879
    R6        2.05192   0.00117   0.00000   0.00327   0.00327   2.05519
    R7        2.91080   0.00033   0.00000   0.00115   0.00115   2.91195
    R8        2.05192   0.00117   0.00000   0.00327   0.00327   2.05519
    R9        2.05192  -0.00112   0.00000  -0.00313  -0.00313   2.04879
   R10        2.91272   0.00034   0.00000   0.00116   0.00116   2.91388
   R11        2.05075  -0.00080   0.00000  -0.00224  -0.00224   2.04851
   R12        2.04940   0.00000   0.00000   0.00000   0.00000   2.04940
   R13        2.05074   0.00042   0.00000   0.00118   0.00118   2.05192
    A1        1.88787   0.00091   0.00000   0.00169   0.00163   1.88950
    A2        1.88766  -0.00003   0.00000  -0.00033  -0.00024   1.88742
    A3        1.92973  -0.00257   0.00000  -0.01784  -0.01783   1.91190
    A4        1.88786  -0.00090   0.00000  -0.00145  -0.00152   1.88635
    A5        1.93938   0.00000   0.00000   0.00010   0.00003   1.93941
    A6        1.92973   0.00258   0.00000   0.01783   0.01784   1.94756
    A7        1.98293  -0.00683   0.00000  -0.06246  -0.06215   1.92078
    A8        1.84052   0.00659   0.00000   0.06590   0.06623   1.90675
    A9        1.95518   0.00053   0.00000   0.00204   0.00129   1.95647
   A10        1.87230  -0.00027   0.00000  -0.00144  -0.00037   1.87192
   A11        1.90227   0.00347   0.00000   0.00814   0.00725   1.90952
   A12        1.90687  -0.00352   0.00000  -0.00968  -0.01057   1.89630
   A13        1.90687  -0.00352   0.00000  -0.00968  -0.01057   1.89630
   A14        1.90227   0.00347   0.00000   0.00814   0.00724   1.90952
   A15        1.95518   0.00053   0.00000   0.00204   0.00129   1.95647
   A16        1.87230  -0.00027   0.00000  -0.00144  -0.00037   1.87192
   A17        1.84052   0.00659   0.00000   0.06590   0.06623   1.90675
   A18        1.98293  -0.00683   0.00000  -0.06246  -0.06215   1.92078
   A19        1.92973  -0.00257   0.00000  -0.01784  -0.01783   1.91190
   A20        1.93938   0.00000   0.00000   0.00010   0.00003   1.93941
   A21        1.92973   0.00258   0.00000   0.01783   0.01784   1.94756
   A22        1.88787   0.00091   0.00000   0.00169   0.00163   1.88950
   A23        1.88766  -0.00003   0.00000  -0.00033  -0.00024   1.88742
   A24        1.88786  -0.00090   0.00000  -0.00145  -0.00152   1.88635
    D1       -3.10390   0.00010   0.00000   0.00027   0.00082  -3.10308
    D2       -1.05836   0.00028   0.00000   0.00683   0.00621  -1.05216
    D3        1.01413   0.00036   0.00000   0.03666   0.03662   1.05075
    D4       -1.00732  -0.00046   0.00000  -0.00938  -0.00879  -1.01611
    D5        1.03822  -0.00028   0.00000  -0.00282  -0.00341   1.03481
    D6        3.11072  -0.00020   0.00000   0.02700   0.02700   3.13772
    D7        1.08926   0.00012   0.00000   0.00070   0.00133   1.09059
    D8        3.13480   0.00031   0.00000   0.00726   0.00671   3.14151
    D9       -1.07589   0.00039   0.00000   0.03708   0.03712  -1.03877
   D10       -0.93422  -0.00210   0.00000   0.07623   0.07612  -0.85811
   D11        1.10657  -0.00244   0.00000   0.07366   0.07377   1.18035
   D12       -2.96706  -0.00831   0.00000   0.00000  -0.00000  -2.96706
   D13        3.13941   0.00378   0.00000   0.14989   0.14989  -2.99388
   D14       -1.10298   0.00343   0.00000   0.14732   0.14755  -0.95543
   D15        1.10657  -0.00244   0.00000   0.07366   0.07377   1.18035
   D16        1.09861   0.00412   0.00000   0.15245   0.15224   1.25085
   D17        3.13941   0.00378   0.00000   0.14989   0.14989  -2.99388
   D18       -0.93422  -0.00210   0.00000   0.07623   0.07612  -0.85811
   D19        1.01412   0.00036   0.00000   0.03666   0.03662   1.05074
   D20        3.11071  -0.00020   0.00000   0.02701   0.02700   3.13771
   D21       -1.07590   0.00039   0.00000   0.03709   0.03713  -1.03877
   D22       -1.05837   0.00028   0.00000   0.00683   0.00621  -1.05216
   D23        1.03822  -0.00028   0.00000  -0.00282  -0.00341   1.03481
   D24        3.13479   0.00031   0.00000   0.00726   0.00672   3.14151
   D25       -3.10391   0.00010   0.00000   0.00028   0.00082  -3.10308
   D26       -1.00732  -0.00046   0.00000  -0.00938  -0.00879  -1.01611
   D27        1.08926   0.00012   0.00000   0.00070   0.00133   1.09059
         Item               Value     Threshold  Converged?
 Maximum Force            0.003954     0.000450     NO 
 RMS     Force            0.001839     0.000300     NO 
 Maximum Displacement     0.099822     0.001800     NO 
 RMS     Displacement     0.042197     0.001200     NO 
 Predicted change in Energy=-2.107963D-03
 GradGradGradGradGradGradGradGradGradGradGradGradGradGradGradGradGradGrad

                          Input orientation:                          
 ---------------------------------------------------------------------
 Center     Atomic      Atomic             Coordinates (Angstroms)
 Number     Number       Type             X           Y           Z
 ---------------------------------------------------------------------
      1          6           0       -1.958249    0.121901   -0.047519
      2          1           0       -2.018771    0.677140   -0.976582
      3          1           0       -2.739267   -0.630520   -0.049818
      4          1           0       -2.154471    0.808781    0.770234
      5          6           0       -0.564036   -0.524865    0.076994
      6          1           0       -0.507501   -1.114450    0.985081
      7          1           0       -0.407674   -1.203418   -0.758411
      8          6           0        0.564036    0.524865    0.077002
      9          1           0        0.407675    1.203427   -0.758396
     10          1           0        0.507499    1.114438    0.985095
     11          6           0        1.958249   -0.121900   -0.047517
     12          1           0        2.018772   -0.677130   -0.976586
     13          1           0        2.739267    0.630521   -0.049808
     14          1           0        2.154470   -0.808788    0.770230
 ---------------------------------------------------------------------
                    Distance matrix (angstroms):
                    1          2          3          4          5
     1  C    0.000000
     2  H    1.084026   0.000000
     3  H    1.084496   1.757265   0.000000
     4  H    1.085830   1.757018   1.756718   0.000000
     5  C    1.541959   2.161271   2.181484   2.188304   0.000000
     6  H    2.167832   3.056445   2.507187   2.541158   1.084172
     7  H    2.160120   2.485906   2.503327   3.071970   1.087559
     8  C    2.557305   2.793586   3.501830   2.819833   1.540935
     9  H    2.696783   2.492433   3.710618   3.009493   2.151533
    10  H    2.851550   3.228227   3.828500   2.688061   2.158738
    11  C    3.924079   4.161528   4.724972   4.295270   2.557305
    12  H    4.161528   4.258615   4.847681   4.761855   2.793585
    13  H    4.724972   4.847681   5.621794   4.965170   3.501830
    14  H    4.295271   4.761856   4.965171   4.602554   2.819834
                    6          7          8          9         10
     6  H    0.000000
     7  H    1.748613   0.000000
     8  C    2.158739   2.151533   0.000000
     9  H    3.041351   2.541199   1.087559   0.000000
    10  H    2.449116   3.041350   1.084171   1.748613   0.000000
    11  C    2.851550   2.696783   1.541959   2.160121   2.167832
    12  H    3.228226   2.492432   2.161271   2.485907   3.056445
    13  H    3.828501   3.710618   2.181484   2.503326   2.507188
    14  H    2.688063   3.009494   2.188304   3.071970   2.541157
                   11         12         13         14
    11  C    0.000000
    12  H    1.084026   0.000000
    13  H    1.084496   1.757265   0.000000
    14  H    1.085830   1.757018   1.756718   0.000000
 Stoichiometry    C4H10
 Framework group  C1[X(C4H10)]
 Deg. of freedom    36
 Full point group                 C1      NOp   1
 Largest Abelian subgroup         C1      NOp   1
 Largest concise Abelian subgroup C1      NOp   1
                         Standard orientation:                         
 ---------------------------------------------------------------------
 Center     Atomic      Atomic             Coordinates (Angstroms)
 Number     Number       Type             X           Y           Z
 ---------------------------------------------------------------------
      1          6           0        1.958188    0.122882    0.056190
      2          1           0        2.018432    0.678151    0.985253
      3          1           0        2.739583   -0.629146    0.058489
      4          1           0        2.154065    0.809861   -0.761564
      5          6           0        0.564299   -0.524583   -0.068324
      6          1           0        0.508060   -1.114196   -0.976410
      7          1           0        0.408277   -1.203213    0.767082
      8          6           0       -0.564299    0.524582   -0.068331
      9          1           0       -0.408278    1.203223    0.767067
     10          1           0       -0.508058    1.114184   -0.976425
     11          6           0       -1.958188   -0.122882    0.056187
     12          1           0       -2.018433   -0.678141    0.985256
     13          1           0       -2.739583    0.629147    0.058479
     14          1           0       -2.154065   -0.809868   -0.761559
 ---------------------------------------------------------------------
 Rotational constants (GHZ):          23.1208534           3.6188795           3.3997150
 Standard basis: 3-21G (6D, 7F)
 There are    56 symmetry adapted cartesian basis functions of A   symmetry.
 There are    56 symmetry adapted basis functions of A   symmetry.
    56 basis functions,    90 primitive gaussians,    56 cartesian basis functions
    17 alpha electrons       17 beta electrons
       nuclear repulsion energy       130.4735894153 Hartrees.
 NAtoms=   14 NActive=   14 NUniq=   14 SFac= 1.00D+00 NAtFMM=   60 NAOKFM=F Big=F
 Integral buffers will be    131072 words long.
 Raffenetti 1 integral format.
 Two-electron integral symmetry is turned on.
 One-electron integrals computed using PRISM.
 NBasis=    56 RedAO= T EigKep=  1.22D-02  NBF=    56
 NBsUse=    56 1.00D-06 EigRej= -1.00D+00 NBFU=    56
 Initial guess from the checkpoint file:  "nbutane10.chk"
 B after Tr=     0.000000   -0.000000    0.000000
         Rot=    1.000000   -0.000000   -0.000000    0.000023 Ang=  -0.00 deg.
 ExpMin= 1.83D-01 ExpMax= 1.72D+02 ExpMxC= 1.72D+02 IAcc=3 IRadAn=         5 AccDes= 0.00D+00
 Harris functional with IExCor=  205 and IRadAn=       5 diagonalized for initial guess.
 HarFok:  IExCor=  205 AccDes= 0.00D+00 IRadAn=         5 IDoV= 1 UseB2=F ITyADJ=14
 ICtDFT=  3500011 ScaDFX=  1.000000  1.000000  1.000000  1.000000
 FoFCou: FMM=F IPFlag=           0 FMFlag=      100000 FMFlg1=           0
         NFxFlg=           0 DoJE=T BraDBF=F KetDBF=T FulRan=T
         wScrn=  0.000000 ICntrl=       500 IOpCl=  0 I1Cent=   200000004 NGrid=           0
         NMat0=    1 NMatS0=      1 NMatT0=    0 NMatD0=    1 NMtDS0=    0 NMtDT0=    0
 Petite list used in FoFCou.
 Keep R1 ints in memory in canonical form, NReq=2101694.
 Requested convergence on RMS density matrix=1.00D-08 within 128 cycles.
 Requested convergence on MAX density matrix=1.00D-06.
 Requested convergence on             energy=1.00D-06.
 No special actions if energy rises.
 SCF Done:  E(RHF) =  -156.431978995     A.U. after    9 cycles
            NFock=  9  Conv=0.32D-08     -V/T= 2.0016
 Calling FoFJK, ICntrl=      2127 FMM=F ISym2X=0 I1Cent= 0 IOpClX= 0 NMat=1 NMatS=1 NMatT=0.
 ***** Axes restored to original set *****
 -------------------------------------------------------------------
 Center     Atomic                   Forces (Hartrees/Bohr)
 Number     Number              X              Y              Z
 -------------------------------------------------------------------
      1        6           0.000389173   -0.000581022   -0.000157390
      2        1          -0.001377156    0.000685801   -0.000368184
      3        1           0.000027708   -0.000016894   -0.000022880
      4        1           0.001520655   -0.000730032    0.000012752
      5        6           0.000236948    0.000008027   -0.000977231
      6        1           0.000120469   -0.000613360    0.000685215
      7        1          -0.001180219    0.000466463    0.000827666
      8        6          -0.000236945   -0.000008045   -0.000977125
      9        1           0.001180214   -0.000466531    0.000827678
     10        1          -0.000120445    0.000613420    0.000685237
     11        6          -0.000389189    0.000581042   -0.000157415
     12        1           0.001377173   -0.000685801   -0.000368204
     13        1          -0.000027703    0.000016896   -0.000022871
     14        1          -0.001520682    0.000730036    0.000012751
 -------------------------------------------------------------------
 Cartesian Forces:  Max     0.001520682 RMS     0.000691113

 GradGradGradGradGradGradGradGradGradGradGradGradGradGradGradGradGradGrad
 Berny optimization.
 Using GEDIIS/GDIIS optimizer.
 FormGI is forming the generalized inverse of G from B-inverse, IUseBI=4.
 Internal  Forces:  Max     0.002616400 RMS     0.000836964
 Search for a local minimum.
 Step number   2 out of a maximum of   74 on scan point     2 out of    37
 All quantities printed in internal units (Hartrees-Bohrs-Radians)
 Mixed Optimization -- En-DIIS/RFO-DIIS
 Update second derivatives using D2CorX and points    1    2
 DE= -1.63D-03 DEPred=-2.11D-03 R= 7.75D-01
 TightC=F SS=  1.41D+00  RLast= 3.71D-01 DXNew= 5.0454D-01 1.1135D+00
 Trust test= 7.75D-01 RLast= 3.71D-01 DXMaxT set to 5.05D-01
 ITU=  1  0
 Use linear search instead of GDIIS.
     Eigenvalues ---    0.00230   0.00230   0.01605   0.03499   0.04768
     Eigenvalues ---    0.04771   0.05374   0.05434   0.05579   0.05624
     Eigenvalues ---    0.08156   0.08182   0.10430   0.12088   0.16000
     Eigenvalues ---    0.16000   0.16000   0.16000   0.16000   0.18201
     Eigenvalues ---    0.21921   0.21921   0.28439   0.28479   0.28535
     Eigenvalues ---    0.35306   0.35306   0.35306   0.35367   0.35402
     Eigenvalues ---    0.35403   0.35403   0.35455   0.35455   0.35843
     Eigenvalues --- 1000.000001000.000001000.000001000.000001000.00000
     Eigenvalues --- 1000.000001000.000001000.000001000.000001000.00000
     Eigenvalues --- 1000.000001000.000001000.000001000.000001000.00000
     Eigenvalues --- 1000.000001000.000001000.000001000.000001000.00000
     Eigenvalues --- 1000.000001000.000001000.000001000.000001000.00000
     Eigenvalues --- 1000.000001000.000001000.000001000.00000
 RFO step:  Lambda=-1.89707577D-04 EMin= 2.30000000D-03
 Quartic linear search produced a step of -0.10556.
 Iteration  1 RMS(Cart)=  0.01137642 RMS(Int)=  0.00012415
 Iteration  2 RMS(Cart)=  0.00011003 RMS(Int)=  0.00005204
 Iteration  3 RMS(Cart)=  0.00000001 RMS(Int)=  0.00005204
 Iteration  1 RMS(Cart)=  0.00000194 RMS(Int)=  0.00000136
 Iteration  2 RMS(Cart)=  0.00000127 RMS(Int)=  0.00000151
 Iteration  3 RMS(Cart)=  0.00000084 RMS(Int)=  0.00000173
 Variable       Old X    -DE/DX   Delta X   Delta X   Delta X     New X
                                 (Linear)    (Quad)   (Total)
    R1        2.04851   0.00074   0.00024   0.00156   0.00179   2.05031
    R2        2.04940  -0.00001  -0.00000  -0.00002  -0.00002   2.04938
    R3        2.05192  -0.00073  -0.00012  -0.00167  -0.00179   2.05013
    R4        2.91388  -0.00073  -0.00012  -0.00214  -0.00226   2.91162
    R5        2.04879   0.00091   0.00033   0.00187   0.00220   2.05098
    R6        2.05519  -0.00110  -0.00035  -0.00231  -0.00265   2.05254
    R7        2.91195   0.00072  -0.00012   0.00243   0.00231   2.91426
    R8        2.05519  -0.00110  -0.00035  -0.00231  -0.00265   2.05254
    R9        2.04879   0.00091   0.00033   0.00187   0.00220   2.05098
   R10        2.91388  -0.00073  -0.00012  -0.00214  -0.00226   2.91162
   R11        2.04851   0.00074   0.00024   0.00156   0.00179   2.05031
   R12        2.04940  -0.00001  -0.00000  -0.00002  -0.00002   2.04938
   R13        2.05192  -0.00073  -0.00012  -0.00167  -0.00179   2.05013
    A1        1.88950  -0.00080  -0.00017  -0.00012  -0.00033   1.88917
    A2        1.88742   0.00004   0.00003   0.00039   0.00047   1.88789
    A3        1.91190   0.00246   0.00188   0.01342   0.01531   1.92721
    A4        1.88635   0.00090   0.00016   0.00067   0.00078   1.88713
    A5        1.93941   0.00002  -0.00000  -0.00001  -0.00006   1.93935
    A6        1.94756  -0.00262  -0.00188  -0.01416  -0.01604   1.93152
    A7        1.92078  -0.00041   0.00656  -0.00948  -0.00295   1.91783
    A8        1.90675  -0.00023  -0.00699   0.00355  -0.00350   1.90325
    A9        1.95647   0.00016  -0.00014   0.00127   0.00121   1.95768
   A10        1.87192  -0.00003   0.00004  -0.00138  -0.00146   1.87046
   A11        1.90952  -0.00021  -0.00076   0.00022  -0.00045   1.90907
   A12        1.89630   0.00073   0.00112   0.00592   0.00713   1.90343
   A13        1.89630   0.00073   0.00112   0.00592   0.00713   1.90343
   A14        1.90952  -0.00021  -0.00076   0.00022  -0.00045   1.90907
   A15        1.95647   0.00016  -0.00014   0.00127   0.00121   1.95768
   A16        1.87192  -0.00003   0.00004  -0.00138  -0.00146   1.87046
   A17        1.90675  -0.00023  -0.00699   0.00355  -0.00350   1.90325
   A18        1.92078  -0.00041   0.00656  -0.00948  -0.00295   1.91783
   A19        1.91190   0.00246   0.00188   0.01342   0.01531   1.92721
   A20        1.93941   0.00002  -0.00000  -0.00001  -0.00006   1.93935
   A21        1.94756  -0.00262  -0.00188  -0.01416  -0.01604   1.93152
   A22        1.88950  -0.00080  -0.00017  -0.00012  -0.00033   1.88917
   A23        1.88742   0.00004   0.00003   0.00039   0.00047   1.88789
   A24        1.88635   0.00090   0.00016   0.00067   0.00078   1.88713
    D1       -3.10308  -0.00019  -0.00009   0.00791   0.00773  -3.09535
    D2       -1.05216  -0.00060  -0.00066   0.00281   0.00219  -1.04996
    D3        1.05075   0.00026  -0.00387   0.01347   0.00957   1.06032
    D4       -1.01611   0.00042   0.00093   0.01643   0.01729  -0.99882
    D5        1.03481   0.00001   0.00036   0.01132   0.01175   1.04656
    D6        3.13772   0.00087  -0.00285   0.02198   0.01913  -3.12634
    D7        1.09059  -0.00020  -0.00014   0.00758   0.00741   1.09800
    D8        3.14151  -0.00062  -0.00071   0.00248   0.00187  -3.13980
    D9       -1.03877   0.00024  -0.00392   0.01314   0.00925  -1.02952
   D10       -0.85811  -0.00074  -0.00804   0.00924   0.00122  -0.85689
   D11        1.18035  -0.00048  -0.00779   0.01106   0.00326   1.18360
   D12       -2.96706  -0.00104   0.00000   0.00000   0.00000  -2.96706
   D13       -2.99388  -0.00018  -0.01582   0.02030   0.00448  -2.98940
   D14       -0.95543   0.00008  -0.01558   0.02211   0.00652  -0.94891
   D15        1.18035  -0.00048  -0.00779   0.01106   0.00326   1.18360
   D16        1.25085  -0.00044  -0.01607   0.01848   0.00244   1.25329
   D17       -2.99388  -0.00018  -0.01582   0.02030   0.00448  -2.98940
   D18       -0.85811  -0.00074  -0.00804   0.00924   0.00122  -0.85689
   D19        1.05074   0.00026  -0.00387   0.01347   0.00957   1.06032
   D20        3.13771   0.00087  -0.00285   0.02198   0.01913  -3.12634
   D21       -1.03877   0.00024  -0.00392   0.01314   0.00925  -1.02952
   D22       -1.05216  -0.00060  -0.00066   0.00281   0.00220  -1.04996
   D23        1.03481   0.00001   0.00036   0.01132   0.01175   1.04656
   D24        3.14151  -0.00062  -0.00071   0.00248   0.00187  -3.13980
   D25       -3.10308  -0.00019  -0.00009   0.00792   0.00774  -3.09535
   D26       -1.01611   0.00042   0.00093   0.01643   0.01729  -0.99882
   D27        1.09059  -0.00020  -0.00014   0.00759   0.00741   1.09800
         Item               Value     Threshold  Converged?
 Maximum Force            0.002616     0.000450     NO 
 RMS     Force            0.000814     0.000300     NO 
 Maximum Displacement     0.036863     0.001800     NO 
 RMS     Displacement     0.011374     0.001200     NO 
 Predicted change in Energy=-1.181457D-04
 GradGradGradGradGradGradGradGradGradGradGradGradGradGradGradGradGradGrad

                          Input orientation:                          
 ---------------------------------------------------------------------
 Center     Atomic      Atomic             Coordinates (Angstroms)
 Number     Number       Type             X           Y           Z
 ---------------------------------------------------------------------
      1          6           0       -1.958343    0.120263   -0.051033
      2          1           0       -2.038278    0.672198   -0.981704
      3          1           0       -2.739873   -0.631419   -0.033941
      4          1           0       -2.135421    0.809893    0.767517
      5          6           0       -0.564744   -0.525003    0.073323
      6          1           0       -0.510069   -1.112816    0.984057
      7          1           0       -0.414594   -1.207419   -0.758239
      8          6           0        0.564744    0.525003    0.073330
      9          1           0        0.414595    1.207428   -0.758225
     10          1           0        0.510067    1.112805    0.984070
     11          6           0        1.958344   -0.120263   -0.051031
     12          1           0        2.038280   -0.672187   -0.981708
     13          1           0        2.739873    0.631420   -0.033929
     14          1           0        2.135420   -0.809901    0.767512
 ---------------------------------------------------------------------
                    Distance matrix (angstroms):
                    1          2          3          4          5
     1  C    0.000000
     2  H    1.084975   0.000000
     3  H    1.084485   1.757814   0.000000
     4  H    1.084882   1.757320   1.756439   0.000000
     5  C    1.540764   2.172021   2.180371   2.175059   0.000000
     6  H    2.165501   3.063644   2.498018   2.526949   1.085334
     7  H    2.155468   2.493842   2.502660   3.059204   1.086155
     8  C    2.558368   2.812558   3.502758   2.802490   1.542159
     9  H    2.704235   2.520515   3.722448   2.998084   2.156825
    10  H    2.854755   3.248456   3.826327   2.671565   2.160346
    11  C    3.924065   4.179369   4.725972   4.277163   2.558368
    12  H    4.179369   4.292516   4.871414   4.761946   2.812558
    13  H    4.725972   4.871413   5.623379   4.943953   3.502758
    14  H    4.277163   4.761946   4.943953   4.567693   2.802490
                    6          7          8          9         10
     6  H    0.000000
     7  H    1.747473   0.000000
     8  C    2.160346   2.156825   0.000000
     9  H    3.045338   2.553241   1.086155   0.000000
    10  H    2.448279   3.045338   1.085334   1.747473   0.000000
    11  C    2.854755   2.704235   1.540764   2.155468   2.165501
    12  H    3.248456   2.520516   2.172021   2.493842   3.063644
    13  H    3.826327   3.722448   2.180371   2.502660   2.498018
    14  H    2.671565   2.998084   2.175059   3.059204   2.526949
                   11         12         13         14
    11  C    0.000000
    12  H    1.084975   0.000000
    13  H    1.084485   1.757814   0.000000
    14  H    1.084882   1.757320   1.756439   0.000000
 Stoichiometry    C4H10
 Framework group  C1[X(C4H10)]
 Deg. of freedom    36
 Full point group                 C1      NOp   1
 Largest Abelian subgroup         C1      NOp   1
 Largest concise Abelian subgroup C1      NOp   1
                         Standard orientation:                         
 ---------------------------------------------------------------------
 Center     Atomic      Atomic             Coordinates (Angstroms)
 Number     Number       Type             X           Y           Z
 ---------------------------------------------------------------------
      1          6           0        1.958123    0.123807    0.057590
      2          1           0        2.037058    0.675885    0.988261
      3          1           0        2.741011   -0.626461    0.040498
      4          1           0        2.133953    0.813755   -0.760960
      5          6           0        0.565693   -0.523981   -0.066766
      6          1           0        0.512081   -1.111892   -0.977500
      7          1           0        0.416778   -1.206667    0.764797
      8          6           0       -0.565693    0.523980   -0.066773
      9          1           0       -0.416779    1.206675    0.764783
     10          1           0       -0.512080    1.111881   -0.977513
     11          6           0       -1.958123   -0.123806    0.057588
     12          1           0       -2.037060   -0.675874    0.988266
     13          1           0       -2.741011    0.626461    0.040487
     14          1           0       -2.133951   -0.813764   -0.760954
 ---------------------------------------------------------------------
 Rotational constants (GHZ):          23.1214858           3.6175637           3.3986902
 Standard basis: 3-21G (6D, 7F)
 There are    56 symmetry adapted cartesian basis functions of A   symmetry.
 There are    56 symmetry adapted basis functions of A   symmetry.
    56 basis functions,    90 primitive gaussians,    56 cartesian basis functions
    17 alpha electrons       17 beta electrons
       nuclear repulsion energy       130.4694379656 Hartrees.
 NAtoms=   14 NActive=   14 NUniq=   14 SFac= 1.00D+00 NAtFMM=   60 NAOKFM=F Big=F
 Integral buffers will be    131072 words long.
 Raffenetti 1 integral format.
 Two-electron integral symmetry is turned on.
 One-electron integrals computed using PRISM.
 NBasis=    56 RedAO= T EigKep=  1.22D-02  NBF=    56
 NBsUse=    56 1.00D-06 EigRej= -1.00D+00 NBFU=    56
 Initial guess from the checkpoint file:  "nbutane10.chk"
 B after Tr=     0.000000    0.000000    0.000000
         Rot=    1.000000   -0.000000   -0.000000   -0.000500 Ang=  -0.06 deg.
 ExpMin= 1.83D-01 ExpMax= 1.72D+02 ExpMxC= 1.72D+02 IAcc=3 IRadAn=         5 AccDes= 0.00D+00
 Harris functional with IExCor=  205 and IRadAn=       5 diagonalized for initial guess.
 HarFok:  IExCor=  205 AccDes= 0.00D+00 IRadAn=         5 IDoV= 1 UseB2=F ITyADJ=14
 ICtDFT=  3500011 ScaDFX=  1.000000  1.000000  1.000000  1.000000
 FoFCou: FMM=F IPFlag=           0 FMFlag=      100000 FMFlg1=           0
         NFxFlg=           0 DoJE=T BraDBF=F KetDBF=T FulRan=T
         wScrn=  0.000000 ICntrl=       500 IOpCl=  0 I1Cent=   200000004 NGrid=           0
         NMat0=    1 NMatS0=      1 NMatT0=    0 NMatD0=    1 NMtDS0=    0 NMtDT0=    0
 Petite list used in FoFCou.
 Keep R1 ints in memory in canonical form, NReq=2101664.
 Requested convergence on RMS density matrix=1.00D-08 within 128 cycles.
 Requested convergence on MAX density matrix=1.00D-06.
 Requested convergence on             energy=1.00D-06.
 No special actions if energy rises.
 SCF Done:  E(RHF) =  -156.432090429     A.U. after    8 cycles
            NFock=  8  Conv=0.33D-08     -V/T= 2.0016
 Calling FoFJK, ICntrl=      2127 FMM=F ISym2X=0 I1Cent= 0 IOpClX= 0 NMat=1 NMatS=1 NMatT=0.
 ***** Axes restored to original set *****
 -------------------------------------------------------------------
 Center     Atomic                   Forces (Hartrees/Bohr)
 Number     Number              X              Y              Z
 -------------------------------------------------------------------
      1        6          -0.000043935    0.000151537    0.001363827
      2        1          -0.000015759   -0.000073560    0.000153656
      3        1           0.000008765   -0.000007471   -0.000057464
      4        1          -0.000090513    0.000184958    0.000106911
      5        6           0.000289051    0.000024329   -0.001728406
      6        1           0.000157414   -0.000011445    0.000114843
      7        1           0.000123916    0.000101356    0.000046639
      8        6          -0.000289046   -0.000024305   -0.001728415
      9        1          -0.000123915   -0.000101349    0.000046633
     10        1          -0.000157418    0.000011439    0.000114843
     11        6           0.000043930   -0.000151554    0.001363824
     12        1           0.000015755    0.000073558    0.000153660
     13        1          -0.000008765    0.000007470   -0.000057463
     14        1           0.000090519   -0.000184963    0.000106911
 -------------------------------------------------------------------
 Cartesian Forces:  Max     0.001728415 RMS     0.000493235

 GradGradGradGradGradGradGradGradGradGradGradGradGradGradGradGradGradGrad
 Berny optimization.
 Using GEDIIS/GDIIS optimizer.
 FormGI is forming the generalized inverse of G from B-inverse, IUseBI=4.
 Internal  Forces:  Max     0.001416894 RMS     0.000320602
 Search for a local minimum.
[...]
           R13          1.08502   1.08480   1.08466   1.08459   1.08464
           A1         108.19103 108.15433 108.12540 108.11175 108.11568
           A2         108.16574 108.16650 108.15963 108.15242 108.14494
           A3         110.56957 110.72819 110.82804 110.86038 110.82020
           A4         108.21177 108.25234 108.27599 108.28032 108.25850
           A5         111.11518 111.09457 111.10331 111.11607 111.12614
           A6         110.48744 110.34507 110.24802 110.21870 110.27308
           A7         108.90533 108.52578 108.34566 108.39785 108.66744
           A8         109.07869 109.54494 109.94974 110.18616 110.17674
           A9         112.46530 112.51341 112.49616 112.36821 112.24498
           A10        106.82543 106.82534 106.88093 106.98295 107.09350
           A11        109.48603 109.31859 109.11222 109.00570 108.95025
           A12        109.91479 109.94015 109.88186 109.73679 109.56066
           A13        109.92036 109.94980 109.87589 109.72325 109.51813
           A14        109.47815 109.30646 109.11742 109.01759 109.00050
           A15        112.46404 112.51372 112.49482 112.36626 112.23831
           A16        106.82240 106.82277 106.88061 106.98287 107.09579
           A17        109.07521 109.54212 109.95103 110.18941 110.18483
           A18        108.91537 108.53310 108.34701 108.39873 108.65741
           A19        110.57866 110.73572 110.82861 110.86133 110.81350
           A20        111.10958 111.09179 111.10197 111.11420 111.11693
           A21        110.48408 110.34125 110.24981 110.22328 110.28694
           A22        108.19006 108.15404 108.12468 108.11006 108.11294
           A23        108.16842 108.16800 108.15958 108.15067 108.14553
           A24        108.20999 108.25017 108.27572 108.27995 108.26288
           D1        -178.15478-179.47645 179.38932 178.86766 179.01920
           D2         -61.91066 -63.18743 -64.13440 -64.37247 -63.93607
           D3          60.30005  59.42064  58.67947  58.33653  58.45351
           D4         -57.99834 -59.27425 -60.37249 -60.88126 -60.74494
           D5          58.24578  57.01476  56.10379  55.87860  56.29979
           D6        -179.54352 179.62284 178.91766 178.58760 178.68938
           D7          62.12964  60.79695  59.67003  59.15564  59.30702
           D8         178.37376 177.08596 176.14630 175.91550 176.35174
           D9         -59.41554 -60.30596 -61.03982 -61.37550 -61.25867
           D10       -118.26485-107.61082 -97.15145 -87.04480 -77.28617
           D11         -1.22008   9.35079  19.72736  29.81257  39.58104
           D12        120.00003 130.00022 140.00018 150.00026 160.00022
           D13        120.52146 131.74083 142.58012 152.77541 162.31177
           D14       -122.43376-111.29756-100.54108 -90.36722 -80.82102
           D15         -1.21366   9.35188  19.73175  29.82047  39.59816
           D16          3.47162  14.77458  25.70053  35.91712  45.45203
           D17        120.51640 131.73619 142.57934 152.77448 162.31924
           D18       -118.26350-107.61437 -97.14784 -87.03783 -77.26158
           D19         60.29047  59.41094  58.67964  58.34023  58.45804
           D20       -179.55198 179.61595 178.91639 178.58856 178.67984
           D21        -59.43215 -60.31990 -61.04113 -61.37320 -61.25956
           D22        -61.92403 -63.20769 -64.12654 -64.35230 -63.87811
           D23         58.23353  56.99732  56.11021  55.89603  56.34370
           D24        178.35336 177.06147 176.15269 175.93427 176.40429
           D25       -178.16818-179.49620 179.39608 178.88561 179.07568
           D26        -58.01062 -59.29119 -60.36716 -60.86606 -60.70251
           D27         62.10921  60.77296  59.67532  59.17218  59.35808
                          36        37
     Eigenvalues --    -0.43209  -0.43247
           R1           1.08520   1.08497
           R2           1.08448   1.08447
           R3           1.08478   1.08497
           R4           1.54083   1.54079
           R5           1.08606   1.08583
           R6           1.08547   1.08583
           R7           1.54135   1.54033
           R8           1.08549   1.08583
           R9           1.08603   1.08583
           R10          1.54088   1.54078
           R11          1.08519   1.08497
           R12          1.08449   1.08448
           R13          1.08476   1.08497
           A1         108.13773 108.17553
           A2         108.14545 108.14359
           A3         110.70891 110.56351
           A4         108.22216 108.17622
           A5         111.11502 111.11538
           A6         110.40880 110.56343
           A7         109.06469 109.53717
           A8         109.95102 109.53832
           A9         112.15629 112.12211
           A10        107.18034 107.21309
           A11        109.02836 109.15339
           A12        109.32820 109.15095
           A13        109.34762 109.15087
           A14        109.00554 109.15221
           A15        112.15748 112.12306
           A16        107.17894 107.21330
           A17        109.94773 109.53816
           A18        109.07119 109.53740
           A19        110.71343 110.56309
           A20        111.12109 111.11578
           A21        110.40360 110.56343
           A22        108.13788 108.17572
           A23        108.14304 108.14356
           A24        108.21876 108.17609
           D1         179.91714-178.79873
           D2         -62.82951 -61.46861
           D3          59.04090  59.86518
           D4         -59.90089 -58.66569
           D5          57.35246  58.66444
           D6         179.22288-180.00177
           D7          60.18793  61.46817
           D8         177.44128 178.79829
           D9         -60.68830 -59.86792
           D10        -67.76412 -58.44351
           D11         49.10954  58.44341
           D12        170.00017 179.99993
           D13        171.33867-179.99993
           D14        -71.78766 -63.11301
           D15         49.10296  58.44351
           D16         54.46132  63.11268
           D17        171.33499-180.00039
           D18        -67.77439 -58.44387
           D19         59.04619  59.86020
           D20        179.23538 179.99346
           D21        -60.67954 -59.87259
           D22        -62.84750 -61.47401
           D23         57.34169  58.65925
           D24        177.42676 178.79320
           D25        179.89892-178.80442
           D26        -59.91189 -58.67117
           D27         60.17319  61.46279
 GradGradGradGradGradGradGradGradGradGradGradGradGradGradGradGradGradGrad

                          Input orientation:                          
 ---------------------------------------------------------------------
 Center     Atomic      Atomic             Coordinates (Angstroms)
 Number     Number       Type             X           Y           Z
 ---------------------------------------------------------------------
      1          6           0       -1.576207   -1.173243   -0.000006
      2          1           0       -1.346141   -1.766877    0.878532
      3          1           0       -2.641003   -0.967587    0.000032
      4          1           0       -1.346185   -1.766835   -0.878583
      5          6           0       -0.758644    0.132748    0.000003
      6          1           0       -1.017056    0.722929   -0.874036
      7          1           0       -1.017003    0.722905    0.874070
      8          6           0        0.758634   -0.132737   -0.000007
      9          1           0        1.017000   -0.722918    0.874043
     10          1           0        1.017016   -0.722902   -0.874066
     11          6           0        1.576218    1.173239    0.000001
     12          1           0        1.346101    1.766895    0.878512
     13          1           0        2.641013    0.967572    0.000109
     14          1           0        1.346258    1.766813   -0.878603
 ---------------------------------------------------------------------
                    Distance matrix (angstroms):
                    1          2          3          4          5
     1  C    0.000000
     2  H    1.084970   0.000000
     3  H    1.084475   1.757069   0.000000
     4  H    1.084970   1.757115   1.757076   0.000000
     5  C    1.540785   2.173830   2.180369   2.173829   0.000000
     6  H    2.161491   3.062503   2.501808   2.511427   1.085834
     7  H    2.161503   2.511447   2.501815   3.062508   1.085830
     8  C    2.556195   2.805766   3.500644   2.805786   1.540330
     9  H    2.773351   2.583468   3.768918   3.121875   2.156159
    10  H    2.773371   3.121857   3.768955   2.583511   2.156178
    11  C    3.929854   4.237485   4.729491   4.237497   2.556209
    12  H    4.237462   4.442489   4.913870   4.777346   2.805738
    13  H    4.729485   4.913882   5.625347   4.913942   3.500657
    14  H    4.237530   4.777394   4.913979   4.442512   2.805839
                    6          7          8          9         10
     6  H    0.000000
     7  H    1.748106   0.000000
     8  C    2.156193   2.156159   0.000000
     9  H    3.046907   2.495511   1.085832   0.000000
    10  H    2.495572   3.046895   1.085834   1.748110   0.000000
    11  C    2.773408   2.773372   1.540784   2.161501   2.161493
    12  H    3.121827   2.583446   2.173825   2.511473   3.062502
    13  H    3.769012   3.768919   2.180374   2.501787   2.501850
    14  H    2.583596   3.121955   2.173827   3.062506   2.511395
                   11         12         13         14
    11  C    0.000000
    12  H    1.084972   0.000000
    13  H    1.084475   1.757073   0.000000
    14  H    1.084968   1.757115   1.757074   0.000000
 Stoichiometry    C4H10
 Framework group  C1[X(C4H10)]
 Deg. of freedom    36
 Full point group                 C1      NOp   1
 Largest Abelian subgroup         C1      NOp   1
 Largest concise Abelian subgroup C1      NOp   1
                         Standard orientation:                         
 ---------------------------------------------------------------------
 Center     Atomic      Atomic             Coordinates (Angstroms)
 Number     Number       Type             X           Y           Z
 ---------------------------------------------------------------------
      1          6           0        1.961081   -0.122842    0.000005
      2          1           0        2.092293   -0.745831   -0.878533
      3          1           0        2.741065    0.630623   -0.000034
      4          1           0        2.092306   -0.745772    0.878582
      5          6           0        0.563242    0.525283   -0.000005
      6          1           0        0.457667    1.160849    0.874035
      7          1           0        0.457635    1.160800   -0.874071
      8          6           0       -0.563238   -0.525270    0.000006
      9          1           0       -0.457624   -1.160811   -0.874045
     10          1           0       -0.457646   -1.160806    0.874065
     11          6           0       -1.961087    0.122831   -0.000002
     12          1           0       -2.092268    0.745867   -0.878514
     13          1           0       -2.741064   -0.630642   -0.000110
     14          1           0       -2.092354    0.745713    0.878601
 ---------------------------------------------------------------------
 Rotational constants (GHZ):          23.3454044           3.6164133           3.3915548

 **********************************************************************

            Population analysis using the SCF Density.

 **********************************************************************

 Orbital symmetries:
       Occupied  (A) (A) (A) (A) (A) (A) (A) (A) (A) (A) (A) (A)
                 (A) (A) (A) (A) (A)
       Virtual   (A) (A) (A) (A) (A) (A) (A) (A) (A) (A) (A) (A)
                 (A) (A) (A) (A) (A) (A) (A) (A) (A) (A) (A) (A)
                 (A) (A) (A) (A) (A) (A) (A) (A) (A) (A) (A) (A)
                 (A) (A) (A)
 The electronic state is 1-A.
 Alpha  occ. eigenvalues --  -11.15747 -11.15727 -11.14935 -11.14916  -1.07034
 Alpha  occ. eigenvalues --   -0.98192  -0.86425  -0.79222  -0.64203  -0.58546
 Alpha  occ. eigenvalues --   -0.57355  -0.57001  -0.51369  -0.49622  -0.46342
 Alpha  occ. eigenvalues --   -0.46065  -0.44993
 Alpha virt. eigenvalues --    0.26549   0.29724   0.30889   0.32449   0.34737
 Alpha virt. eigenvalues --    0.36582   0.36675   0.37386   0.38194   0.38379
 Alpha virt. eigenvalues --    0.44230   0.45080   0.45322   0.89747   0.90598
 Alpha virt. eigenvalues --    0.91313   0.94101   1.01202   1.02934   1.05810
 Alpha virt. eigenvalues --    1.09322   1.10684   1.19221   1.25710   1.26997
 Alpha virt. eigenvalues --    1.35536   1.37080   1.37406   1.39480   1.39586
 Alpha virt. eigenvalues --    1.40983   1.44395   1.46242   1.46242   1.54595
 Alpha virt. eigenvalues --    1.88637   2.16708   2.30361   2.57849
          Condensed to atoms (all electrons):
               1          2          3          4          5          6
     1  C    5.352447   0.377166   0.380333   0.377167   0.255402  -0.042721
     2  H    0.377166   0.522130  -0.026307  -0.027449  -0.045065   0.003105
     3  H    0.380333  -0.026307   0.512954  -0.026306  -0.040116  -0.001527
     4  H    0.377167  -0.027449  -0.026306   0.522128  -0.045065  -0.001902
     5  C    0.255402  -0.045065  -0.040116  -0.045065   5.441550   0.385709
     6  H   -0.042721   0.003105  -0.001527  -0.001902   0.385709   0.526448
     7  H   -0.042719  -0.001902  -0.001527   0.003105   0.385708  -0.028205
     8  C   -0.076510  -0.001392   0.003368  -0.001392   0.249943  -0.047211
     9  H   -0.000587   0.002410  -0.000037   0.000003  -0.047216   0.003364
    10  H   -0.000586   0.000003  -0.000037   0.002410  -0.047214  -0.002125
    11  C    0.003507  -0.000035  -0.000061  -0.000035  -0.076506  -0.000586
    12  H   -0.000035   0.000003   0.000001   0.000001  -0.001393   0.000003
    13  H   -0.000061   0.000001   0.000000   0.000001   0.003368  -0.000037
    14  H   -0.000035   0.000001   0.000001   0.000003  -0.001392   0.002410
               7          8          9         10         11         12
     1  C   -0.042719  -0.076510  -0.000587  -0.000586   0.003507  -0.000035
     2  H   -0.001902  -0.001392   0.002410   0.000003  -0.000035   0.000003
     3  H   -0.001527   0.003368  -0.000037  -0.000037  -0.000061   0.000001
     4  H    0.003105  -0.001392   0.000003   0.002410  -0.000035   0.000001
     5  C    0.385708   0.249943  -0.047216  -0.047214  -0.076506  -0.001393
     6  H   -0.028205  -0.047211   0.003364  -0.002125  -0.000586   0.000003
     7  H    0.526450  -0.047216  -0.002125   0.003364  -0.000587   0.002411
     8  C   -0.047216   5.441550   0.385709   0.385708   0.255402  -0.045066
     9  H   -0.002125   0.385709   0.526450  -0.028205  -0.042720  -0.001902
    10  H    0.003364   0.385708  -0.028205   0.526450  -0.042721   0.003105
    11  C   -0.000587   0.255402  -0.042720  -0.042721   5.352444   0.377166
    12  H    0.002411  -0.045066  -0.001902   0.003105   0.377166   0.522131
    13  H   -0.000037  -0.040116  -0.001527  -0.001527   0.380333  -0.026307
    14  H    0.000003  -0.045065   0.003105  -0.001903   0.377167  -0.027449
              13         14
     1  C   -0.000061  -0.000035
     2  H    0.000001   0.000001
     3  H    0.000000   0.000001
     4  H    0.000001   0.000003
     5  C    0.003368  -0.001392
     6  H   -0.000037   0.002410
     7  H   -0.000037   0.000003
     8  C   -0.040116  -0.045065
     9  H   -0.001527   0.003105
    10  H   -0.001527  -0.001903
    11  C    0.380333   0.377167
    12  H   -0.026307  -0.027449
    13  H    0.512953  -0.026306
    14  H   -0.026306   0.522127
 Mulliken charges:
               1
     1  C   -0.582766
     2  H    0.197332
     3  H    0.199261
     4  H    0.197333
     5  C   -0.417713
     6  H    0.203276
     7  H    0.203277
     8  C   -0.417711
     9  H    0.203277
    10  H    0.203276
    11  C   -0.582767
    12  H    0.197331
    13  H    0.199261
    14  H    0.197334
 Sum of Mulliken charges =  -0.00000
 Mulliken charges with hydrogens summed into heavy atoms:
               1
     1  C    0.011160
     5  C   -0.011160
     8  C   -0.011158
    11  C    0.011159
 Electronic spatial extent (au):  <R**2>=            426.3525
 Charge=              0.0000 electrons
 Dipole moment (field-independent basis, Debye):
    X=              0.0000    Y=              0.0000    Z=             -0.0000  Tot=              0.0000
 Quadrupole moment (field-independent basis, Debye-Ang):
   XX=            -29.3238   YY=            -28.8271   ZZ=            -28.3674
   XY=              0.2112   XZ=              0.0000   YZ=              0.0000
 Traceless Quadrupole moment (field-independent basis, Debye-Ang):
   XX=             -0.4843   YY=              0.0123   ZZ=              0.4721
   XY=              0.2112   XZ=              0.0000   YZ=              0.0000
 Octapole moment (field-independent basis, Debye-Ang**2):
  XXX=             -0.0000  YYY=              0.0000  ZZZ=              0.0002  XYY=              0.0000
  XXY=             -0.0000  XXZ=             -0.0000  XZZ=              0.0000  YZZ=              0.0000
  YYZ=             -0.0001  XYZ=             -0.0001
 Hexadecapole moment (field-independent basis, Debye-Ang**3):
 XXXX=           -453.3624 YYYY=            -87.0391 ZZZZ=            -54.3720 XXXY=              6.5192
 XXXZ=             -0.0002 YYYX=              0.8077 YYYZ=              0.0002 ZZZX=             -0.0005
 ZZZY=              0.0001 XXYY=            -87.2430 XXZZ=            -84.3514 YYZZ=            -21.0106
 XXYZ=              0.0003 YYXZ=              0.0001 ZZXY=             -2.1171
 N-N= 1.304938286402D+02 E-N=-6.238808805994D+02  KE= 1.561821514327D+02
 1\1\GINC-NODE13\Scan\RHF\3-21G\C4H10\SC4101.14\15-Nov-2025\0\\# opt=mo
 dredundant hf/3-21g geom=connectivity\\calculation of confirmational s
 ymmetry for n-butane this time 10 degrees at a time\\0,1\C,-1.57620660
 57,-1.1732428278,-0.0000063989\H,-1.3461411759,-1.7668768534,0.8785315
 86\H,-2.6410028014,-0.9675870293,0.0000323784\H,-1.3461846962,-1.76683
 46935,-0.8785833518\C,-0.7586443491,0.1327479165,0.0000032148\H,-1.017
 0564964,0.7229287344,-0.8740364002\H,-1.017002993,0.7229051662,0.87406
 97815\C,0.7586343819,-0.1327374761,-0.0000071454\H,1.01699995,-0.72291
 84192,0.8740433931\H,1.0170157059,-0.7229024934,-0.8740663181\C,1.5762
 178058,1.1732386323,0.0000007922\H,1.3461009887,1.7668949978,0.8785123
 904\H,2.6410125915,0.9675722643,0.000108807\H,1.3462576939,1.766813081
 1,-0.8786027289\\Version=ES64L-G16RevB.01\State=1-A\HF=-156.4324666,-1
 56.4320917,-156.4310602,-156.4296332,-156.428185,-156.4271131,-156.426
 7262,-156.4271412,-156.4282207,-156.429574,-156.430689,-156.4312169,-1
 56.4310616,-156.4301846,-156.4286427,-156.4267022,-156.424789,-156.423
 3728,-156.4228464,-156.4233727,-156.424789,-156.4267022,-156.4286427,-
 156.4301846,-156.4310616,-156.4312169,-156.430689,-156.429574,-156.428
 2209,-156.4271414,-156.4267262,-156.4271134,-156.4281853,-156.4296332,
 -156.4310601,-156.4320918,-156.4324668\RMSD=1.214e-09,9.159e-09,4.089e
 -09,6.200e-09,3.316e-09,5.032e-09,4.323e-09,5.915e-09,5.843e-09,5.759e
 -09,8.092e-09,8.395e-09,6.385e-09,8.088e-09,3.157e-09,9.625e-09,2.766e
 -09,8.739e-09,1.606e-09,2.859e-09,7.274e-09,7.290e-09,6.404e-09,9.765e
 -09,8.464e-09,3.633e-09,2.270e-09,5.170e-09,3.392e-09,4.905e-09,5.271e
 -09,5.139e-09,4.612e-09,2.870e-09,2.364e-09,7.371e-09,3.237e-09\PG=C01
  [X(C4H10)]\\@


 HOW IS IT THAT THE SKY FEEDS THE STARS?

                           -- LUCRETIUS
 Job cpu time:       0 days  0 hours  5 minutes  3.2 seconds.
 Elapsed time:       0 days  0 hours  5 minutes  9.3 seconds.
 File lengths (MBytes):  RWF=     10 Int=      0 D2E=      0 Chk=      5 Scr=      1
 Normal termination of Gaussian 16 at Sat Nov 15 17:51:08 2025.
